 Q-Chem 6.2 (devel), Q-Chem, Inc., Pleasanton, CA (2024)
 Q-Chem 6.2.2 for Intel X86 EM64T Linux

User input:
--------------------------------------------------------------
$molecule
read
$end

$rem
method                    b3lyp
basis                     cc-pv5z
mem_total                 63000
mem_static                8000
thresh                    12
scf_convergence           8
xc_grid                   000075000302
max_scf_cycles            2000
symmetry                  false
sym_ignore                true
scf_guess                 read
mom_start                 1
cis_n_roots               100
cis_triplets              false
rpa                       false
trnss                     true
trtype                    2
n_sol                     49
nto_pairs                 2
gui                       2
print_orbitals            true
state_analysis            true
$end

$solute
1 528 529 530 531 532 533 534 535 536 537 538 539 540 541 542 543 544 545 546 547 548 549 550 551 552 553 554 555 556 557 558 559 560 561 562 563 564 565 566 567 568 569 570 571 572 573 574 575
$end
--------------------------------------------------------------

             Standard Nuclear Orientation (Angstroms)
    I     Atom           X                Y                Z
 ----------------------------------------------------------------
    1      O      -1.0312200000     0.4068400000     0.2480400000
    2      O      -0.2835200000    -3.0021600000     0.6456400000
    3      H      -0.5051200000    -2.1381600000     0.3506400000
    4      H      -0.4955200000    -3.6541600000    -0.0441600000
    5      H      -1.6510200000     0.5918400000    -0.4868600000
    6      H      -0.7853200000     1.2658400000     0.5996400000
    7      O       1.3931800000     2.5789400000    -0.8480600000
    8      H       0.5008800000     2.1761400000    -0.9688600000
    9      H       1.6911800000     2.0182400000    -0.1742600000
 ----------------------------------------------------------------

    2    -229.4185271435      1.98e-10  Convergence criterion met
 Total energy =  -229.41852714

         TDDFT/TDA Excitation Energies
 ---------------------------------------------------

 Excited state   1: excitation energy (eV) =    1014.3111
 Total energy for state   1:                  -192.14328162 au
    Multiplicity: Singlet
    Trans. Mom.:  0.0010 X   0.0002 Y  -0.0018 Z
    Strength   :     0.0001096806
    D(    1) --> V(  513) amplitude =  0.2688
    D(    1) --> V(  516) amplitude =  0.9469

 Excited state   2: excitation energy (eV) =    1015.1427
 Total energy for state   2:                  -192.11272180 au
    Multiplicity: Singlet
    Trans. Mom.: -0.0049 X   0.0093 Y  -0.0061 Z
    Strength   :     0.0036462475
    D(    1) --> V(  513) amplitude = -0.2977
    D(    1) --> V(  517) amplitude =  0.9325

 Excited state   3: excitation energy (eV) =    1019.1076
 Total energy for state   3:                  -191.96701227 au
    Multiplicity: Singlet
    Trans. Mom.: -0.0025 X  -0.0004 Y  -0.0021 Z
    Strength   :     0.0002742838
    D(    1) --> V(  513) amplitude =  0.9111
    D(    1) --> V(  516) amplitude = -0.2481
    D(    1) --> V(  517) amplitude =  0.2611

 Excited state   4: excitation energy (eV) =    1019.3403
 Total energy for state   4:                  -191.95846246 au
    Multiplicity: Singlet
    Trans. Mom.: -0.0002 X  -0.0002 Y  -0.0004 Z
    Strength   :     0.0000053163
    D(    1) --> V(  514) amplitude =  0.9988

 Excited state   5: excitation energy (eV) =    1019.8006
 Total energy for state   5:                  -191.94154682 au
    Multiplicity: Singlet
    Trans. Mom.: -0.0007 X   0.0005 Y  -0.0008 Z
    Strength   :     0.0000346495
    D(    1) --> V(  515) amplitude =  0.9491
    D(    1) --> V(  517) amplitude =  0.2329

 Excited state   6: excitation energy (eV) =    1021.0389
 Total energy for state   6:                  -191.89603975 au
    Multiplicity: Singlet
    Trans. Mom.: -0.0136 X  -0.0142 Y  -0.0166 Z
    Strength   :     0.0166138601
    D(    1) --> V(  520) amplitude =  0.9961

 Excited state   7: excitation energy (eV) =    1023.1859
 Total energy for state   7:                  -191.81713855 au
    Multiplicity: Singlet
    Trans. Mom.: -0.0006 X  -0.0000 Y  -0.0005 Z
    Strength   :     0.0000136924
    D(    1) --> V(  518) amplitude =  0.9995

 Excited state   8: excitation energy (eV) =    1024.8891
 Total energy for state   8:                  -191.75454576 au
    Multiplicity: Singlet
    Trans. Mom.:  0.0004 X   0.0007 Y  -0.0003 Z
    Strength   :     0.0000212715
    D(    1) --> V(  519) amplitude =  0.9995

 Excited state   9: excitation energy (eV) =    1026.7318
 Total energy for state   9:                  -191.68683092 au
    Multiplicity: Singlet
    Trans. Mom.: -0.0001 X   0.0004 Y   0.0004 Z
    Strength   :     0.0000097263
    D(    1) --> V(  523) amplitude =  0.9984

 Excited state  10: excitation energy (eV) =    1028.5754
 Total energy for state  10:                  -191.61907679 au
    Multiplicity: Singlet
    Trans. Mom.:  0.0008 X   0.0048 Y   0.0011 Z
    Strength   :     0.0006246346
    D(    1) --> V(  521) amplitude =  0.8374
    D(    1) --> V(  524) amplitude =  0.4754

 Excited state  11: excitation energy (eV) =    1028.7055
 Total energy for state  11:                  -191.61429799 au
    Multiplicity: Singlet
    Trans. Mom.:  0.0002 X   0.0067 Y   0.0004 Z
    Strength   :     0.0011381696
    D(    1) --> V(  521) amplitude = -0.5437
    D(    1) --> V(  522) amplitude =  0.2892
    D(    1) --> V(  524) amplitude =  0.7216
    D(    1) --> V(  525) amplitude =  0.2981

 Excited state  12: excitation energy (eV) =    1029.6719
 Total energy for state  12:                  -191.57878284 au
    Multiplicity: Singlet
    Trans. Mom.: -0.0003 X  -0.0013 Y  -0.0004 Z
    Strength   :     0.0000465742
    D(    1) --> V(  522) amplitude =  0.9416
    D(    1) --> V(  524) amplitude = -0.3058

 Excited state  13: excitation energy (eV) =    1033.6193
 Total energy for state  13:                  -191.43371806 au
    Multiplicity: Singlet
    Trans. Mom.:  0.0002 X  -0.0005 Y   0.0001 Z
    Strength   :     0.0000093213
    D(    1) --> V(  524) amplitude = -0.3836
    D(    1) --> V(  525) amplitude =  0.9231

 Excited state  14: excitation energy (eV) =    1033.8716
 Total energy for state  14:                  -191.42444487 au
    Multiplicity: Singlet
    Trans. Mom.: -0.0001 X   0.0006 Y   0.0003 Z
    Strength   :     0.0000102584
    D(    1) --> V(  526) amplitude =  0.9941

 Excited state  15: excitation energy (eV) =    1037.5317
 Total energy for state  15:                  -191.28994156 au
    Multiplicity: Singlet
    Trans. Mom.: -0.0011 X  -0.0027 Y  -0.0017 Z
    Strength   :     0.0002876635
    D(    1) --> V(  527) amplitude = -0.6265
    D(    1) --> V(  529) amplitude =  0.2422
    D(    1) --> V(  530) amplitude =  0.7232

 Excited state  16: excitation energy (eV) =    1037.7031
 Total energy for state  16:                  -191.28364109 au
    Multiplicity: Singlet
    Trans. Mom.: -0.0010 X  -0.0017 Y  -0.0011 Z
    Strength   :     0.0001286236
    D(    1) --> V(  527) amplitude =  0.7756
    D(    1) --> V(  529) amplitude =  0.2293
    D(    1) --> V(  530) amplitude =  0.5739

 Excited state  17: excitation energy (eV) =    1037.9794
 Total energy for state  17:                  -191.27348685 au
    Multiplicity: Singlet
    Trans. Mom.:  0.0000 X   0.0000 Y   0.0000 Z
    Strength   :     0.0000000172
    D(    1) --> V(  528) amplitude =  0.9999

 Excited state  18: excitation energy (eV) =    1038.2303
 Total energy for state  18:                  -191.26426672 au
    Multiplicity: Singlet
    Trans. Mom.:  0.0005 X   0.0013 Y   0.0004 Z
    Strength   :     0.0000554490
    D(    1) --> V(  529) amplitude =  0.9384
    D(    1) --> V(  530) amplitude = -0.3279

 Excited state  19: excitation energy (eV) =    1039.4192
 Total energy for state  19:                  -191.22057522 au
    Multiplicity: Singlet
    Trans. Mom.:  0.0019 X   0.0003 Y  -0.0017 Z
    Strength   :     0.0001714586
    D(    1) --> V(  531) amplitude =  0.9955

 Excited state  20: excitation energy (eV) =    1040.7255
 Total energy for state  20:                  -191.17257021 au
    Multiplicity: Singlet
    Trans. Mom.: -0.0028 X  -0.0000 Y   0.0029 Z
    Strength   :     0.0004050295
    D(    1) --> V(  532) amplitude =  0.9519
    D(    1) --> V(  533) amplitude =  0.2210

 Excited state  21: excitation energy (eV) =    1041.8526
 Total energy for state  21:                  -191.13114996 au
    Multiplicity: Singlet
    Trans. Mom.: -0.0026 X   0.0000 Y  -0.0018 Z
    Strength   :     0.0002590306
    D(    1) --> V(  532) amplitude = -0.2374
    D(    1) --> V(  533) amplitude =  0.9398

 Excited state  22: excitation energy (eV) =    1047.7485
 Total energy for state  22:                  -190.91447874 au
    Multiplicity: Singlet
    Trans. Mom.:  0.0026 X   0.0013 Y   0.0021 Z
    Strength   :     0.0003286659
    D(    1) --> V(  534) amplitude =  0.8893
    D(    1) --> V(  538) amplitude =  0.3863

 Excited state  23: excitation energy (eV) =    1047.7959
 Total energy for state  23:                  -190.91273673 au
    Multiplicity: Singlet
    Trans. Mom.:  0.0044 X   0.0028 Y   0.0056 Z
    Strength   :     0.0014984701
    D(    1) --> V(  534) amplitude = -0.4275
    D(    1) --> V(  538) amplitude =  0.8254

 Excited state  24: excitation energy (eV) =    1048.5494
 Total energy for state  24:                  -190.88504567 au
    Multiplicity: Singlet
    Trans. Mom.:  0.0020 X   0.0003 Y  -0.0000 Z
    Strength   :     0.0001037450
    D(    1) --> V(  535) amplitude =  0.9537

 Excited state  25: excitation energy (eV) =    1048.9062
 Total energy for state  25:                  -190.87193571 au
    Multiplicity: Singlet
    Trans. Mom.:  0.0012 X   0.0008 Y   0.0011 Z
    Strength   :     0.0000825733
    D(    1) --> V(  536) amplitude =  0.9721

 Excited state  26: excitation energy (eV) =    1049.4327
 Total energy for state  26:                  -190.85258501 au
    Multiplicity: Singlet
    Trans. Mom.: -0.0088 X  -0.0004 Y   0.0078 Z
    Strength   :     0.0035423034
    D(    1) --> V(  541) amplitude = -0.3648
    D(    1) --> V(  542) amplitude =  0.9024

 Excited state  27: excitation energy (eV) =    1051.9114
 Total energy for state  27:                  -190.76149713 au
    Multiplicity: Singlet
    Trans. Mom.:  0.0009 X   0.0001 Y  -0.0008 Z
    Strength   :     0.0000357142
    D(    1) --> V(  537) amplitude =  0.9924

 Excited state  28: excitation energy (eV) =    1054.4715
 Total energy for state  28:                  -190.66741278 au
    Multiplicity: Singlet
    Trans. Mom.:  0.0001 X   0.0000 Y  -0.0004 Z
    Strength   :     0.0000049988
    D(    1) --> V(  539) amplitude =  0.9868

 Excited state  29: excitation energy (eV) =    1054.9720
 Total energy for state  29:                  -190.64902292 au
    Multiplicity: Singlet
    Trans. Mom.: -0.0002 X  -0.0002 Y  -0.0002 Z
    Strength   :     0.0000036223
    D(    1) --> V(  540) amplitude =  0.9768

 Excited state  30: excitation energy (eV) =    1055.2571
 Total energy for state  30:                  -190.63854400 au
    Multiplicity: Singlet
    Trans. Mom.:  0.0001 X   0.0002 Y   0.0006 Z
    Strength   :     0.0000125566
    D(    1) --> V(  538) amplitude = -0.2280
    D(    1) --> V(  541) amplitude =  0.8888
    D(    1) --> V(  542) amplitude =  0.3667

 Excited state  31: excitation energy (eV) =    1058.7843
 Total energy for state  31:                  -190.50892165 au
    Multiplicity: Singlet
    Trans. Mom.: -0.0000 X   0.0005 Y   0.0004 Z
    Strength   :     0.0000107161
    D(    1) --> V(  543) amplitude =  0.9987

 Excited state  32: excitation energy (eV) =    1060.1569
 Total energy for state  32:                  -190.45847982 au
    Multiplicity: Singlet
    Trans. Mom.: -0.0000 X  -0.0002 Y  -0.0000 Z
    Strength   :     0.0000009764
    D(    1) --> V(  544) amplitude =  0.9998

 Excited state  33: excitation energy (eV) =    1061.2354
 Total energy for state  33:                  -190.41884387 au
    Multiplicity: Singlet
    Trans. Mom.: -0.0001 X  -0.0000 Y  -0.0000 Z
    Strength   :     0.0000001398
    D(    1) --> V(  545) amplitude =  1.0000

 Excited state  34: excitation energy (eV) =    1063.0258
 Total energy for state  34:                  -190.35305110 au
    Multiplicity: Singlet
    Trans. Mom.:  0.0004 X   0.0000 Y   0.0002 Z
    Strength   :     0.0000050341
    D(    1) --> V(  546) amplitude =  0.9998

 Excited state  35: excitation energy (eV) =    1074.3204
 Total energy for state  35:                  -189.93798158 au
    Multiplicity: Singlet
    Trans. Mom.:  0.0074 X  -0.0121 Y   0.0075 Z
    Strength   :     0.0067939759
    D(    1) --> V(  547) amplitude =  0.9959

 Excited state  36: excitation energy (eV) =    1080.6655
 Total energy for state  36:                  -189.70480351 au
    Multiplicity: Singlet
    Trans. Mom.:  0.0123 X   0.0117 Y   0.0158 Z
    Strength   :     0.0141795378
    D(    1) --> V(  550) amplitude =  0.9915

 Excited state  37: excitation energy (eV) =    1083.9634
 Total energy for state  37:                  -189.58360594 au
    Multiplicity: Singlet
    Trans. Mom.: -0.0010 X  -0.0005 Y  -0.0007 Z
    Strength   :     0.0000422494
    D(    1) --> V(  548) amplitude =  0.9864

 Excited state  38: excitation energy (eV) =    1084.1049
 Total energy for state  38:                  -189.57840786 au
    Multiplicity: Singlet
    Trans. Mom.: -0.0005 X   0.0001 Y  -0.0009 Z
    Strength   :     0.0000282994
    D(    1) --> V(  549) amplitude =  0.9877

 Excited state  39: excitation energy (eV) =    1090.9558
 Total energy for state  39:                  -189.32664239 au
    Multiplicity: Singlet
    Trans. Mom.:  0.0001 X  -0.0002 Y  -0.0001 Z
    Strength   :     0.0000012639
    D(    1) --> V(  551) amplitude =  1.0000

 Excited state  40: excitation energy (eV) =    1093.3599
 Total energy for state  40:                  -189.23829122 au
    Multiplicity: Singlet
    Trans. Mom.: -0.0003 X   0.0002 Y  -0.0001 Z
    Strength   :     0.0000038098
    D(    1) --> V(  552) amplitude =  1.0000

 Excited state  41: excitation energy (eV) =    1106.6071
 Total energy for state  41:                  -188.75146609 au
    Multiplicity: Singlet
    Trans. Mom.: -0.0118 X  -0.0020 Y   0.0106 Z
    Strength   :     0.0069396304
    D(    1) --> V(  553) amplitude = -0.2805
    D(    1) --> V(  555) amplitude =  0.8920
    D(    1) --> V(  556) amplitude = -0.2682

 Excited state  42: excitation energy (eV) =    1110.8248
 Total energy for state  42:                  -188.59646917 au
    Multiplicity: Singlet
    Trans. Mom.:  0.0062 X  -0.0183 Y   0.0051 Z
    Strength   :     0.0108178438
    D(    1) --> V(  556) amplitude = -0.4415
    D(    1) --> V(  557) amplitude = -0.3503
    D(    1) --> V(  558) amplitude =  0.7965

 Excited state  43: excitation energy (eV) =    1114.2542
 Total energy for state  43:                  -188.47043934 au
    Multiplicity: Singlet
    Trans. Mom.: -0.0003 X   0.0001 Y   0.0003 Z
    Strength   :     0.0000062051
    D(    1) --> V(  553) amplitude =  0.9588
    D(    1) --> V(  555) amplitude =  0.2615

 Excited state  44: excitation energy (eV) =    1114.9198
 Total energy for state  44:                  -188.44598080 au
    Multiplicity: Singlet
    Trans. Mom.: -0.0001 X   0.0010 Y  -0.0005 Z
    Strength   :     0.0000364796
    D(    1) --> V(  554) amplitude =  0.9548

 Excited state  45: excitation energy (eV) =    1116.0779
 Total energy for state  45:                  -188.40342167 au
    Multiplicity: Singlet
    Trans. Mom.:  0.0009 X  -0.0010 Y   0.0006 Z
    Strength   :     0.0000621925
    D(    1) --> V(  555) amplitude =  0.2457
    D(    1) --> V(  556) amplitude =  0.7962
    D(    1) --> V(  557) amplitude = -0.4808
    D(    1) --> V(  558) amplitude =  0.2710

 Excited state  46: excitation energy (eV) =    1116.5828
 Total energy for state  46:                  -188.38486737 au
    Multiplicity: Singlet
    Trans. Mom.:  0.0006 X  -0.0013 Y   0.0006 Z
    Strength   :     0.0000632338
    D(    1) --> V(  556) amplitude =  0.2556
    D(    1) --> V(  557) amplitude =  0.7991
    D(    1) --> V(  558) amplitude =  0.5197

 Excited state  47: excitation energy (eV) =    1123.3798
 Total energy for state  47:                  -188.13508163 au
    Multiplicity: Singlet
    Trans. Mom.: -0.0000 X   0.0001 Y  -0.0000 Z
    Strength   :     0.0000002925
    D(    1) --> V(  559) amplitude = -0.5100
    D(    1) --> V(  560) amplitude =  0.8600

 Excited state  48: excitation energy (eV) =    1125.2903
 Total energy for state  48:                  -188.06487181 au
    Multiplicity: Singlet
    Trans. Mom.: -0.0000 X  -0.0002 Y  -0.0000 Z
    Strength   :     0.0000010883
    D(    1) --> V(  559) amplitude =  0.8601
    D(    1) --> V(  560) amplitude =  0.5100

 ---------------------------------------------------

                    Orbital Energies (a.u.)
 --------------------------------------------------------------

 Alpha MOs
 -- Occupied --
-19.1671 -19.1411 -19.1188  -1.0482  -1.0335  -1.0065  -0.5694  -0.5385
 -0.5340  -0.4313  -0.4177  -0.3779  -0.3542  -0.3311  -0.3112

                    Cartesian Multipole Moments
 -----------------------------------------------------------------
    Charge (ESU x 10^10)
                 0.0000
    Dipole Moment (Debye)
         X      -2.2936      Y       0.6094      Z      -1.2842
       Tot       2.6983
    Quadrupole Moments (Debye-Ang)
        XX     -19.7478     XY      -3.8249     YY     -26.1167
        XZ       5.2853     YZ       9.1779     ZZ     -22.3718

 Total job time:  562.23s(wall), 7797.72s(cpu)
        *  Thank you very much for using Q-Chem.  Have a nice day.  *
