 Q-Chem 6.2 (devel), Q-Chem, Inc., Pleasanton, CA (2024)
 Q-Chem 6.2.2 for Intel X86 EM64T Linux

User input:
--------------------------------------------------------------
$molecule
0 1
O -1.47711 0.79517 1.11526
O 2.64679 -0.74818 0.92526
H 2.36179 0.16502 0.73726
H 3.13619 -0.83038 1.76726
H -1.59541 1.37509 1.88226
H -0.55821 0.73733 0.86726
O -2.95551 -1.17018 -1.28374
H -3.43731 -1.94648 -1.40774
H -2.44691 -1.32218 -0.47974
O 1.66419 1.07930 -0.83574
H 2.17359 1.93678 -0.75074
H 2.29709 0.58143 -1.36274
$end

$rem
method                    b3lyp
basis                     cc-pv5z
mem_total                 48000
mem_static                8000
thresh                    12
scf_convergence           8
xc_grid                   000075000302
max_scf_cycles            2000
symmetry                  false
sym_ignore                true
print_orbitals true
$end
gui                       2
molden_format true
--------------------------------------------------------------

             Standard Nuclear Orientation (Angstroms)
    I     Atom           X                Y                Z
 ----------------------------------------------------------------
    1      O      -1.4771100000     0.7951700000     1.1152600000
    2      O       2.6467900000    -0.7481800000     0.9252600000
    3      H       2.3617900000     0.1650200000     0.7372600000
    4      H       3.1361900000    -0.8303800000     1.7672600000
    5      H      -1.5954100000     1.3750900000     1.8822600000
    6      H      -0.5582100000     0.7373300000     0.8672600000
    7      O      -2.9555100000    -1.1701800000    -1.2837400000
    8      H      -3.4373100000    -1.9464800000    -1.4077400000
    9      H      -2.4469100000    -1.3221800000    -0.4797400000
   10      O       1.6641900000     1.0793000000    -0.8357400000
   11      H       2.1735900000     1.9367800000    -0.7507400000
   12      H       2.2970900000     0.5814300000    -1.3627400000
 ----------------------------------------------------------------

   11    -305.8937362149      4.42e-09  Convergence criterion met
 Total energy =  -305.89373621

                    Orbital Energies (a.u.)
 --------------------------------------------------------------

 Alpha MOs
 -- Occupied --
-19.1653 -19.1210 -19.1203 -19.1058  -1.0442  -1.0053  -1.0032  -0.9969
 -0.5494  -0.5404  -0.5366  -0.5211  -0.4361  -0.3779  -0.3761  -0.3755
 -0.3492  -0.3127  -0.3109  -0.3001

          Ground-State Mulliken Net Atomic Charges

     Atom                 Charge (a.u.)
  ----------------------------------------
      1 O                    -0.592331
      2 O                    -0.613548
      3 H                     0.300927
      4 H                     0.278492
      5 H                     0.263475
      6 H                     0.330775
      7 O                    -0.562421
      8 H                     0.254868
      9 H                     0.302425
     10 O                    -0.626034
     11 H                     0.315506
     12 H                     0.347866
  ----------------------------------------
  Sum of atomic charges =     0.000000

                    Cartesian Multipole Moments
 -----------------------------------------------------------------
    Charge (ESU x 10^10)
                 0.0000
    Dipole Moment (Debye)
         X       3.4766      Y       1.5483      Z       1.9170
       Tot       4.2613
    Quadrupole Moments (Debye-Ang)
        XX     -22.1128     XY      10.5437     YY     -19.4688
        XZ      -2.8849     YZ       2.7119     ZZ     -22.3754

 Total job time:  831.12s(wall), 25858.72s(cpu)
        *  Thank you very much for using Q-Chem.  Have a nice day.  *
