 Q-Chem 6.2 (devel), Q-Chem, Inc., Pleasanton, CA (2024)
 Q-Chem 6.2.2 for Intel X86 EM64T Linux

User input:
--------------------------------------------------------------
$molecule
0 1
O -1.03122 0.40684 0.24804
O -0.28352 -3.00216 0.64564
H -0.50512 -2.13816 0.35064
H -0.49552 -3.65416 -0.04416
H -1.65102 0.59184 -0.48686
H -0.78532 1.26584 0.59964
O 1.39318 2.57894 -0.84806
H 0.50088 2.17614 -0.96886
H 1.69118 2.01824 -0.17426
$end

$rem
method                    b3lyp
basis                     cc-pv5z
mem_total                 48000
mem_static                8000
thresh                    12
scf_convergence           8
xc_grid                   000075000302
max_scf_cycles            2000
symmetry                  false
sym_ignore                true
print_orbitals true
$end
gui                       2
molden_format true
--------------------------------------------------------------

             Standard Nuclear Orientation (Angstroms)
    I     Atom           X                Y                Z
 ----------------------------------------------------------------
    1      O      -1.0312200000     0.4068400000     0.2480400000
    2      O      -0.2835200000    -3.0021600000     0.6456400000
    3      H      -0.5051200000    -2.1381600000     0.3506400000
    4      H      -0.4955200000    -3.6541600000    -0.0441600000
    5      H      -1.6510200000     0.5918400000    -0.4868600000
    6      H      -0.7853200000     1.2658400000     0.5996400000
    7      O       1.3931800000     2.5789400000    -0.8480600000
    8      H       0.5008800000     2.1761400000    -0.9688600000
    9      H       1.6911800000     2.0182400000    -0.1742600000
 ----------------------------------------------------------------

   11    -229.4185271435      1.80e-09  Convergence criterion met
 Total energy =  -229.41852714

                    Orbital Energies (a.u.)
 --------------------------------------------------------------

 Alpha MOs
 -- Occupied --
-19.1671 -19.1411 -19.1188  -1.0482  -1.0335  -1.0065  -0.5694  -0.5385
 -0.5340  -0.4313  -0.4177  -0.3779  -0.3542  -0.3311  -0.3112

          Ground-State Mulliken Net Atomic Charges

     Atom                 Charge (a.u.)
  ----------------------------------------
      1 O                    -0.593636
      2 O                    -0.600206
      3 H                     0.315312
      4 H                     0.280041
      5 H                     0.302853
      6 H                     0.300974
      7 O                    -0.600248
      8 H                     0.302679
      9 H                     0.292230
  ----------------------------------------
  Sum of atomic charges =     0.000000

                    Cartesian Multipole Moments
 -----------------------------------------------------------------
    Charge (ESU x 10^10)
                 0.0000
    Dipole Moment (Debye)
         X      -2.2936      Y       0.6094      Z      -1.2842
       Tot       2.6983
    Quadrupole Moments (Debye-Ang)
        XX     -19.7478     XY      -3.8249     YY     -26.1167
        XZ       5.2853     YZ       9.1779     ZZ     -22.3718

 Total job time:  482.99s(wall), 14910.17s(cpu)
        *  Thank you very much for using Q-Chem.  Have a nice day.  *
