 Q-Chem 6.2 (devel), Q-Chem, Inc., Pleasanton, CA (2024)
 Q-Chem 6.2.2 for Intel X86 EM64T Linux

User input:
--------------------------------------------------------------
$molecule
read
$end

$rem
method                    b3lyp
basis                     cc-pv5z
mem_total                 63000
mem_static                8000
thresh                    12
scf_convergence           8
xc_grid                   000075000302
max_scf_cycles            2000
symmetry                  false
sym_ignore                true
scf_guess                 read
mom_start                 1
cis_n_roots               150
cis_triplets              false
rpa                       false
trnss                     true
trtype                    2
n_sol                     69
nto_pairs                 2
gui                       2
print_orbitals            true
state_analysis            true
$end

$solute
2 701 702 703 704 705 706 707 708 709 710 711 712 713 714 715 716 717 718 719 720 721 722 723 724 725 726 727 728 729 730 731 732 733 734 735 736 737 738 739 740 741 742 743 744 745 746 747 748 749 750 751 752 753 754 755 756 757 758 759 760 761 762 763 764 765 766 767 768
$end
--------------------------------------------------------------

             Standard Nuclear Orientation (Angstroms)
    I     Atom           X                Y                Z
 ----------------------------------------------------------------
    1      O      -1.1099400000    -0.7248500000    -1.2086700000
    2      H      -1.3468700000    -1.4365500000    -1.7421700000
    3      H      -0.4715400000    -0.9165500000    -0.5415700000
    4      O       0.4618600000    -1.9568500000     0.6271300000
    5      H      -0.2683400000    -2.5956500000     0.7356300000
    6      H       1.3045600000    -2.3541500000     0.8916300000
    7      O       0.5099600000     0.4982500000     2.1556300000
    8      H      -0.2945400000     0.9522500000     1.9616300000
    9      H       0.3481600000    -0.3231500000     1.6136300000
   10      O       0.1710600000     2.3709100000    -1.5903700000
   11      H       0.8548600000     1.8749900000    -1.0961700000
   12      H      -0.6492400000     1.8233000000    -1.5639700000
 ----------------------------------------------------------------

    2    -305.8978219280      1.39e-10  Convergence criterion met
 Total energy =  -305.89782193

         TDDFT/TDA Excitation Energies
 ---------------------------------------------------

 Excited state   1: excitation energy (eV) =    1011.3114
 Total energy for state   1:                  -268.73281360 au
    Multiplicity: Singlet
    Trans. Mom.:  0.0062 X   0.0108 Y   0.0108 Z
    Strength   :     0.0067406252
    D(    2) --> V(  681) amplitude =  0.4535
    D(    2) --> V(  682) amplitude =  0.8608

 Excited state   2: excitation energy (eV) =    1011.8867
 Total energy for state   2:                  -268.71167142 au
    Multiplicity: Singlet
    Trans. Mom.: -0.0003 X   0.0005 Y  -0.0002 Z
    Strength   :     0.0000100371
    D(    2) --> V(  683) amplitude =  0.8857
    D(    2) --> V(  684) amplitude = -0.4040

 Excited state   3: excitation energy (eV) =    1012.4628
 Total energy for state   3:                  -268.69049959 au
    Multiplicity: Singlet
    Trans. Mom.:  0.0169 X  -0.0030 Y   0.0183 Z
    Strength   :     0.0156390742
    D(    2) --> V(  681) amplitude =  0.4871
    D(    2) --> V(  683) amplitude =  0.3922
    D(    2) --> V(  684) amplitude =  0.7321

 Excited state   4: excitation energy (eV) =    1014.7547
 Total energy for state   4:                  -268.60627586 au
    Multiplicity: Singlet
    Trans. Mom.: -0.0045 X   0.0075 Y  -0.0022 Z
    Strength   :     0.0020275006
    D(    2) --> V(  688) amplitude =  0.9399

 Excited state   5: excitation energy (eV) =    1016.4934
 Total energy for state   5:                  -268.54238014 au
    Multiplicity: Singlet
    Trans. Mom.: -0.0039 X   0.0017 Y  -0.0043 Z
    Strength   :     0.0009096317
    D(    2) --> V(  681) amplitude =  0.7365
    D(    2) --> V(  682) amplitude = -0.4796
    D(    2) --> V(  684) amplitude = -0.4443

 Excited state   6: excitation energy (eV) =    1018.2616
 Total energy for state   6:                  -268.47739743 au
    Multiplicity: Singlet
    Trans. Mom.:  0.0010 X  -0.0011 Y  -0.0007 Z
    Strength   :     0.0000678944
    D(    2) --> V(  684) amplitude =  0.2172
    D(    2) --> V(  685) amplitude =  0.9607

 Excited state   7: excitation energy (eV) =    1018.9911
 Total energy for state   7:                  -268.45059122 au
    Multiplicity: Singlet
    Trans. Mom.:  0.0002 X   0.0003 Y   0.0003 Z
    Strength   :     0.0000052171
    D(    2) --> V(  686) amplitude =  0.9905

 Excited state   8: excitation energy (eV) =    1019.3516
 Total energy for state   8:                  -268.43734124 au
    Multiplicity: Singlet
    Trans. Mom.:  0.0003 X   0.0006 Y   0.0000 Z
    Strength   :     0.0000096812
    D(    2) --> V(  687) amplitude =  0.9937

 Excited state   9: excitation energy (eV) =    1020.6961
 Total energy for state   9:                  -268.38793158 au
    Multiplicity: Singlet
    Trans. Mom.:  0.0021 X  -0.0043 Y   0.0002 Z
    Strength   :     0.0005797041
    D(    2) --> V(  689) amplitude =  0.9680

 Excited state  10: excitation energy (eV) =    1021.4798
 Total energy for state  10:                  -268.35913226 au
    Multiplicity: Singlet
    Trans. Mom.: -0.0000 X   0.0001 Y   0.0002 Z
    Strength   :     0.0000014135
    D(    2) --> V(  690) amplitude =  0.9885

 Excited state  11: excitation energy (eV) =    1022.4279
 Total energy for state  11:                  -268.32428963 au
    Multiplicity: Singlet
    Trans. Mom.:  0.0001 X  -0.0008 Y  -0.0002 Z
    Strength   :     0.0000158865
    D(    2) --> V(  691) amplitude =  0.9795

 Excited state  12: excitation energy (eV) =    1022.9407
 Total energy for state  12:                  -268.30544394 au
    Multiplicity: Singlet
    Trans. Mom.: -0.0004 X   0.0008 Y   0.0001 Z
    Strength   :     0.0000220929
    D(    2) --> V(  692) amplitude =  0.9727

 Excited state  13: excitation energy (eV) =    1023.3217
 Total energy for state  13:                  -268.29144340 au
    Multiplicity: Singlet
    Trans. Mom.: -0.0003 X   0.0018 Y   0.0005 Z
    Strength   :     0.0000910781
    D(    2) --> V(  693) amplitude =  0.9770

 Excited state  14: excitation energy (eV) =    1024.7102
 Total energy for state  14:                  -268.24041740 au
    Multiplicity: Singlet
    Trans. Mom.:  0.0021 X  -0.0005 Y   0.0017 Z
    Strength   :     0.0001967308
    D(    2) --> V(  694) amplitude =  0.9951

 Excited state  15: excitation energy (eV) =    1028.2243
 Total energy for state  15:                  -268.11127744 au
    Multiplicity: Singlet
    Trans. Mom.: -0.0011 X  -0.0008 Y  -0.0013 Z
    Strength   :     0.0000930303
    D(    2) --> V(  695) amplitude =  0.9989

 Excited state  16: excitation energy (eV) =    1029.3943
 Total energy for state  16:                  -268.06827835 au
    Multiplicity: Singlet
    Trans. Mom.:  0.0001 X  -0.0003 Y   0.0002 Z
    Strength   :     0.0000035059
    D(    2) --> V(  696) amplitude =  0.9999

 Excited state  17: excitation energy (eV) =    1029.6285
 Total energy for state  17:                  -268.05967184 au
    Multiplicity: Singlet
    Trans. Mom.:  0.0000 X  -0.0001 Y  -0.0001 Z
    Strength   :     0.0000008250
    D(    2) --> V(  697) amplitude =  1.0000

 Excited state  18: excitation energy (eV) =    1030.2716
 Total energy for state  18:                  -268.03603797 au
    Multiplicity: Singlet
    Trans. Mom.: -0.0019 X  -0.0009 Y  -0.0023 Z
    Strength   :     0.0002364911
    D(    2) --> V(  698) amplitude =  0.9964

 Excited state  19: excitation energy (eV) =    1032.0537
 Total energy for state  19:                  -267.97054741 au
    Multiplicity: Singlet
    Trans. Mom.: -0.0114 X  -0.0064 Y  -0.0158 Z
    Strength   :     0.0106023546
    D(    2) --> V(  699) amplitude =  0.4798
    D(    2) --> V(  700) amplitude =  0.6870
    D(    2) --> V(  701) amplitude = -0.3633
    D(    2) --> V(  703) amplitude = -0.3883

 Excited state  20: excitation energy (eV) =    1032.4869
 Total energy for state  20:                  -267.95462948 au
    Multiplicity: Singlet
    Trans. Mom.:  0.0041 X   0.0026 Y   0.0060 Z
    Strength   :     0.0014936757
    D(    2) --> V(  699) amplitude =  0.8743
    D(    2) --> V(  700) amplitude = -0.4261

 Excited state  21: excitation energy (eV) =    1033.9704
 Total energy for state  21:                  -267.90011031 au
    Multiplicity: Singlet
    Trans. Mom.:  0.0111 X   0.0018 Y   0.0126 Z
    Strength   :     0.0072588173
    D(    2) --> V(  700) amplitude =  0.5813
    D(    2) --> V(  701) amplitude =  0.6333
    D(    2) --> V(  703) amplitude =  0.4932

 Excited state  22: excitation energy (eV) =    1036.1893
 Total energy for state  22:                  -267.81856792 au
    Multiplicity: Singlet
    Trans. Mom.: -0.0057 X  -0.0002 Y  -0.0069 Z
    Strength   :     0.0020262811
    D(    2) --> V(  701) amplitude =  0.5963
    D(    2) --> V(  702) amplitude = -0.5324
    D(    2) --> V(  703) amplitude = -0.5890

 Excited state  23: excitation energy (eV) =    1036.5068
 Total energy for state  23:                  -267.80690059 au
    Multiplicity: Singlet
    Trans. Mom.: -0.0038 X  -0.0001 Y  -0.0042 Z
    Strength   :     0.0008205439
    D(    2) --> V(  701) amplitude =  0.2712
    D(    2) --> V(  702) amplitude =  0.8376
    D(    2) --> V(  703) amplitude = -0.4655

 Excited state  24: excitation energy (eV) =    1038.6472
 Total energy for state  24:                  -267.72824269 au
    Multiplicity: Singlet
    Trans. Mom.:  0.0051 X   0.0070 Y   0.0080 Z
    Strength   :     0.0035411200
    D(    2) --> V(  705) amplitude =  0.9824

 Excited state  25: excitation energy (eV) =    1038.8180
 Total energy for state  25:                  -267.72196415 au
    Multiplicity: Singlet
    Trans. Mom.: -0.0013 X  -0.0001 Y  -0.0030 Z
    Strength   :     0.0002715861
    D(    2) --> V(  708) amplitude =  0.9736

 Excited state  26: excitation energy (eV) =    1041.3169
 Total energy for state  26:                  -267.63013346 au
    Multiplicity: Singlet
    Trans. Mom.:  0.0000 X  -0.0007 Y  -0.0002 Z
    Strength   :     0.0000123533
    D(    2) --> V(  704) amplitude =  0.9970

 Excited state  27: excitation energy (eV) =    1043.8896
 Total energy for state  27:                  -267.53558680 au
    Multiplicity: Singlet
    Trans. Mom.:  0.0000 X  -0.0001 Y  -0.0000 Z
    Strength   :     0.0000002592
    D(    2) --> V(  706) amplitude =  0.9992

 Excited state  28: excitation energy (eV) =    1044.0082
 Total energy for state  28:                  -267.53122702 au
    Multiplicity: Singlet
    Trans. Mom.:  0.0004 X   0.0004 Y  -0.0004 Z
    Strength   :     0.0000115363
    D(    2) --> V(  707) amplitude =  0.9851

 Excited state  29: excitation energy (eV) =    1044.8509
 Total energy for state  29:                  -267.50025840 au
    Multiplicity: Singlet
    Trans. Mom.: -0.0007 X  -0.0006 Y   0.0004 Z
    Strength   :     0.0000236281
    D(    2) --> V(  709) amplitude =  0.9718

 Excited state  30: excitation energy (eV) =    1045.1568
 Total energy for state  30:                  -267.48901662 au
    Multiplicity: Singlet
    Trans. Mom.:  0.0020 X   0.0003 Y  -0.0000 Z
    Strength   :     0.0001029479
    D(    2) --> V(  710) amplitude =  0.8693
    D(    2) --> V(  718) amplitude =  0.3075

 Excited state  31: excitation energy (eV) =    1045.5648
 Total energy for state  31:                  -267.47402377 au
    Multiplicity: Singlet
    Trans. Mom.:  0.0017 X   0.0017 Y  -0.0030 Z
    Strength   :     0.0003703276
    D(    2) --> V(  710) amplitude = -0.4172
    D(    2) --> V(  713) amplitude =  0.2812
    D(    2) --> V(  718) amplitude =  0.6869
    D(    2) --> V(  719) amplitude = -0.3254

 Excited state  32: excitation energy (eV) =    1046.1572
 Total energy for state  32:                  -267.45225554 au
    Multiplicity: Singlet
    Trans. Mom.:  0.0004 X  -0.0001 Y   0.0002 Z
    Strength   :     0.0000054089
    D(    2) --> V(  711) amplitude =  0.9655

 Excited state  33: excitation energy (eV) =    1046.5578
 Total energy for state  33:                  -267.43753396 au
    Multiplicity: Singlet
    Trans. Mom.:  0.0005 X   0.0009 Y   0.0015 Z
    Strength   :     0.0000873295
    D(    2) --> V(  712) amplitude =  0.9608

 Excited state  34: excitation energy (eV) =    1047.6352
 Total energy for state  34:                  -267.39793803 au
    Multiplicity: Singlet
    Trans. Mom.: -0.0009 X   0.0028 Y   0.0003 Z
    Strength   :     0.0002259355
    D(    2) --> V(  713) amplitude =  0.6415
    D(    2) --> V(  719) amplitude =  0.5581
    D(    2) --> V(  721) amplitude =  0.4539

 Excited state  35: excitation energy (eV) =    1049.1400
 Total energy for state  35:                  -267.34263783 au
    Multiplicity: Singlet
    Trans. Mom.:  0.0007 X  -0.0016 Y   0.0004 Z
    Strength   :     0.0000817050
    D(    2) --> V(  713) amplitude =  0.6910
    D(    2) --> V(  715) amplitude = -0.2711
    D(    2) --> V(  718) amplitude = -0.3219
    D(    2) --> V(  719) amplitude = -0.3917
    D(    2) --> V(  721) amplitude = -0.4156

 Excited state  36: excitation energy (eV) =    1050.0294
 Total energy for state  36:                  -267.30995316 au
    Multiplicity: Singlet
    Trans. Mom.: -0.0035 X  -0.0009 Y  -0.0034 Z
    Strength   :     0.0006275972
    D(    2) --> V(  714) amplitude =  0.6481
    D(    2) --> V(  715) amplitude = -0.5000
    D(    2) --> V(  716) amplitude =  0.3657
    D(    2) --> V(  717) amplitude = -0.2711

 Excited state  37: excitation energy (eV) =    1050.3929
 Total energy for state  37:                  -267.29659560 au
    Multiplicity: Singlet
    Trans. Mom.:  0.0001 X  -0.0006 Y   0.0008 Z
    Strength   :     0.0000236810
    D(    2) --> V(  714) amplitude = -0.4185
    D(    2) --> V(  716) amplitude =  0.8963

 Excited state  38: excitation energy (eV) =    1050.5159
 Total energy for state  38:                  -267.29207423 au
    Multiplicity: Singlet
    Trans. Mom.:  0.0002 X   0.0003 Y   0.0005 Z
    Strength   :     0.0000077751
    D(    2) --> V(  714) amplitude =  0.5321
    D(    2) --> V(  715) amplitude =  0.7781

 Excited state  39: excitation energy (eV) =    1051.3040
 Total energy for state  39:                  -267.26311099 au
    Multiplicity: Singlet
    Trans. Mom.:  0.0016 X   0.0003 Y   0.0006 Z
    Strength   :     0.0000786607
    D(    2) --> V(  717) amplitude =  0.9289
    D(    2) --> V(  718) amplitude =  0.2522

 Excited state  40: excitation energy (eV) =    1052.0619
 Total energy for state  40:                  -267.23525942 au
    Multiplicity: Singlet
    Trans. Mom.: -0.0053 X  -0.0014 Y   0.0051 Z
    Strength   :     0.0014298560
    D(    2) --> V(  723) amplitude =  0.8741
    D(    2) --> V(  724) amplitude = -0.3967

 Excited state  41: excitation energy (eV) =    1052.6348
 Total energy for state  41:                  -267.21420826 au
    Multiplicity: Singlet
    Trans. Mom.: -0.0016 X  -0.0031 Y  -0.0012 Z
    Strength   :     0.0003439958
    D(    2) --> V(  718) amplitude = -0.3765
    D(    2) --> V(  719) amplitude = -0.5006
    D(    2) --> V(  721) amplitude =  0.6317
    D(    2) --> V(  724) amplitude = -0.2852
    D(    2) --> V(  725) amplitude = -0.2387

 Excited state  42: excitation energy (eV) =    1053.5819
 Total energy for state  42:                  -267.17940180 au
    Multiplicity: Singlet
    Trans. Mom.:  0.0005 X   0.0002 Y  -0.0004 Z
    Strength   :     0.0000120387
    D(    2) --> V(  720) amplitude =  0.9803

 Excited state  43: excitation energy (eV) =    1055.9887
 Total energy for state  43:                  -267.09095297 au
    Multiplicity: Singlet
    Trans. Mom.: -0.0037 X   0.0066 Y  -0.0021 Z
    Strength   :     0.0015972238
    D(    2) --> V(  721) amplitude =  0.3423
    D(    2) --> V(  723) amplitude =  0.2684
    D(    2) --> V(  724) amplitude =  0.5520
    D(    2) --> V(  725) amplitude =  0.5773
    D(    2) --> V(  726) amplitude =  0.2861

 Excited state  44: excitation energy (eV) =    1056.5483
 Total energy for state  44:                  -267.07038876 au
    Multiplicity: Singlet
    Trans. Mom.:  0.0002 X   0.0008 Y  -0.0004 Z
    Strength   :     0.0000212929
    D(    2) --> V(  722) amplitude =  0.9766

 Excited state  45: excitation energy (eV) =    1058.4863
 Total energy for state  45:                  -266.99916656 au
    Multiplicity: Singlet
    Trans. Mom.:  0.0066 X  -0.0026 Y   0.0006 Z
    Strength   :     0.0013287145
    D(    2) --> V(  723) amplitude =  0.3396
    D(    2) --> V(  724) amplitude =  0.5945
    D(    2) --> V(  725) amplitude = -0.5721
    D(    2) --> V(  726) amplitude = -0.3715

 Excited state  46: excitation energy (eV) =    1060.7918
 Total energy for state  46:                  -266.91444199 au
    Multiplicity: Singlet
    Trans. Mom.:  0.0059 X   0.0035 Y  -0.0082 Z
    Strength   :     0.0029637110
    D(    2) --> V(  725) amplitude =  0.3102
    D(    2) --> V(  726) amplitude = -0.3113
    D(    2) --> V(  727) amplitude =  0.8783

 Excited state  47: excitation energy (eV) =    1062.1794
 Total energy for state  47:                  -266.86344714 au
    Multiplicity: Singlet
    Trans. Mom.:  0.0017 X   0.0014 Y  -0.0036 Z
    Strength   :     0.0004772382
    D(    2) --> V(  725) amplitude = -0.4020
    D(    2) --> V(  726) amplitude =  0.8076
    D(    2) --> V(  727) amplitude =  0.4272

 Excited state  48: excitation energy (eV) =    1066.0263
 Total energy for state  48:                  -266.72207621 au
    Multiplicity: Singlet
    Trans. Mom.: -0.0028 X  -0.0036 Y  -0.0027 Z
    Strength   :     0.0007309105
    D(    2) --> V(  728) amplitude =  0.9923

 Excited state  49: excitation energy (eV) =    1079.1060
 Total energy for state  49:                  -266.24140814 au
    Multiplicity: Singlet
    Trans. Mom.:  0.0004 X  -0.0006 Y   0.0001 Z
    Strength   :     0.0000130570
    D(    2) --> V(  729) amplitude =  0.9977

 Excited state  50: excitation energy (eV) =    1080.3193
 Total energy for state  50:                  -266.19682033 au
    Multiplicity: Singlet
    Trans. Mom.:  0.0038 X  -0.0081 Y   0.0025 Z
    Strength   :     0.0022855741
    D(    2) --> V(  730) amplitude =  0.7995

                    Orbital Energies (a.u.)
 --------------------------------------------------------------

 Alpha MOs
 -- Occupied --
-19.1946 -19.1237 -19.1183 -19.1107  -1.0769  -1.0264  -1.0042  -0.9840
 -0.6096  -0.5734  -0.5154  -0.5095  -0.4582  -0.4059  -0.3850  -0.3740
 -0.3646  -0.3267  -0.3094  -0.2967

                    Cartesian Multipole Moments
 -----------------------------------------------------------------
    Charge (ESU x 10^10)
                -0.0000
    Dipole Moment (Debye)
         X      -0.5600      Y      -6.4341      Z       0.6063
       Tot       6.4868
    Quadrupole Moments (Debye-Ang)
        XX     -24.3030     XY      -2.5054     YY     -22.3643
        XZ      -0.8534     YZ       2.2608     ZZ     -35.1655

 Total job time:  5708.73s(wall), 43099.15s(cpu)
        *  Thank you very much for using Q-Chem.  Have a nice day.  *
