 Q-Chem 6.2 (devel), Q-Chem, Inc., Pleasanton, CA (2024)
 Q-Chem 6.2.2 for Intel X86 EM64T Linux

User input:
--------------------------------------------------------------
$molecule
0 1
O -1.10994 -0.72485 -1.20867
H -1.34687 -1.43655 -1.74217
H -0.47154 -0.91655 -0.54157
O 0.46186 -1.95685 0.62713
H -0.26834 -2.59565 0.73563
H 1.30456 -2.35415 0.89163
O 0.50996 0.49825 2.15563
H -0.29454 0.95225 1.96163
H 0.34816 -0.32315 1.61363
O 0.17106 2.37091 -1.59037
H 0.85486 1.87499 -1.09617
H -0.64924 1.82330 -1.56397
$end

$rem
method                    b3lyp
basis                     cc-pv5z
mem_total                 48000
mem_static                8000
thresh                    12
scf_convergence           8
xc_grid                   000075000302
max_scf_cycles            2000
symmetry                  false
sym_ignore                true
print_orbitals true
$end
gui                       2
molden_format true
--------------------------------------------------------------

             Standard Nuclear Orientation (Angstroms)
    I     Atom           X                Y                Z
 ----------------------------------------------------------------
    1      O      -1.1099400000    -0.7248500000    -1.2086700000
    2      H      -1.3468700000    -1.4365500000    -1.7421700000
    3      H      -0.4715400000    -0.9165500000    -0.5415700000
    4      O       0.4618600000    -1.9568500000     0.6271300000
    5      H      -0.2683400000    -2.5956500000     0.7356300000
    6      H       1.3045600000    -2.3541500000     0.8916300000
    7      O       0.5099600000     0.4982500000     2.1556300000
    8      H      -0.2945400000     0.9522500000     1.9616300000
    9      H       0.3481600000    -0.3231500000     1.6136300000
   10      O       0.1710600000     2.3709100000    -1.5903700000
   11      H       0.8548600000     1.8749900000    -1.0961700000
   12      H      -0.6492400000     1.8233000000    -1.5639700000
 ----------------------------------------------------------------

   12    -305.8978219280      1.88e-09  Convergence criterion met
 Total energy =  -305.89782193

                    Orbital Energies (a.u.)
 --------------------------------------------------------------

 Alpha MOs
 -- Occupied --
-19.1946 -19.1237 -19.1183 -19.1107  -1.0769  -1.0264  -1.0042  -0.9840
 -0.6096  -0.5734  -0.5154  -0.5095  -0.4582  -0.4059  -0.3850  -0.3740
 -0.3646  -0.3267  -0.3094  -0.2967

          Ground-State Mulliken Net Atomic Charges

     Atom                 Charge (a.u.)
  ----------------------------------------
      1 O                    -0.683007
      2 H                     0.280539
      3 H                     0.388055
      4 O                    -0.651649
      5 H                     0.339507
      6 H                     0.342418
      7 O                    -0.662776
      8 H                     0.295068
      9 H                     0.355023
     10 O                    -0.649932
     11 H                     0.308630
     12 H                     0.338121
  ----------------------------------------
  Sum of atomic charges =     0.000000

                    Cartesian Multipole Moments
 -----------------------------------------------------------------
    Charge (ESU x 10^10)
                -0.0000
    Dipole Moment (Debye)
         X      -0.5600      Y      -6.4341      Z       0.6063
       Tot       6.4868
    Quadrupole Moments (Debye-Ang)
        XX     -24.3030     XY      -2.5054     YY     -22.3643
        XZ      -0.8534     YZ       2.2608     ZZ     -35.1655

 Total job time:  1677.57s(wall), 52537.23s(cpu)
        *  Thank you very much for using Q-Chem.  Have a nice day.  *
