 Q-Chem 6.2 (devel), Q-Chem, Inc., Pleasanton, CA (2024)
 Q-Chem 6.2.2 for Intel X86 EM64T Linux

User input:
--------------------------------------------------------------
$molecule
0 1
O 0.25621 0.02105 -1.68712
H 0.60051 0.51475 -2.47152
H 0.23721 0.68085 -0.97742
O 1.39241 1.74125 0.55238
H 1.10151 2.54935 0.95838
H 2.36331 1.68175 0.62238
O -1.95429 -1.14325 -0.48682
H -1.55559 -0.91215 -1.33052
H -1.25389 -1.24435 0.16438
O 0.12411 -0.73735 1.60338
H 0.69001 -0.07285 1.19638
H 0.69901 -1.31945 2.12638
$end

$rem
method                    b3lyp
basis                     cc-pv5z
mem_total                 48000
mem_static                8000
thresh                    12
scf_convergence           8
xc_grid                   000075000302
max_scf_cycles            2000
symmetry                  false
sym_ignore                true
print_orbitals true
$end
gui                       2
molden_format true
--------------------------------------------------------------

             Standard Nuclear Orientation (Angstroms)
    I     Atom           X                Y                Z
 ----------------------------------------------------------------
    1      O       0.2562100000     0.0210500000    -1.6871200000
    2      H       0.6005100000     0.5147500000    -2.4715200000
    3      H       0.2372100000     0.6808500000    -0.9774200000
    4      O       1.3924100000     1.7412500000     0.5523800000
    5      H       1.1015100000     2.5493500000     0.9583800000
    6      H       2.3633100000     1.6817500000     0.6223800000
    7      O      -1.9542900000    -1.1432500000    -0.4868200000
    8      H      -1.5555900000    -0.9121500000    -1.3305200000
    9      H      -1.2538900000    -1.2443500000     0.1643800000
   10      O       0.1241100000    -0.7373500000     1.6033800000
   11      H       0.6900100000    -0.0728500000     1.1963800000
   12      H       0.6990100000    -1.3194500000     2.1263800000
 ----------------------------------------------------------------

   11    -305.9080816230      2.51e-09  Convergence criterion met
 Total energy =  -305.90808162

                    Orbital Energies (a.u.)
 --------------------------------------------------------------

 Alpha MOs
 -- Occupied --
-19.1812 -19.1320 -19.1281 -19.0662  -1.0660  -1.0127  -1.0100  -0.9537
 -0.5935  -0.5438  -0.5275  -0.4878  -0.4476  -0.4009  -0.3957  -0.3692
 -0.3350  -0.3223  -0.3097  -0.2630

          Ground-State Mulliken Net Atomic Charges

     Atom                 Charge (a.u.)
  ----------------------------------------
      1 O                    -0.650974
      2 H                     0.278653
      3 H                     0.364345
      4 O                    -0.631641
      5 H                     0.332286
      6 H                     0.326619
      7 O                    -0.765974
      8 H                     0.365103
      9 H                     0.388598
     10 O                    -0.628021
     11 H                     0.341162
     12 H                     0.279844
  ----------------------------------------
  Sum of atomic charges =     0.000000

                    Cartesian Multipole Moments
 -----------------------------------------------------------------
    Charge (ESU x 10^10)
                 0.0000
    Dipole Moment (Debye)
         X       6.1434      Y       4.2234      Z       0.8541
       Tot       7.5038
    Quadrupole Moments (Debye-Ang)
        XX     -28.4113     XY       0.0283     YY     -20.7073
        XZ       3.1827     YZ      -1.5963     ZZ     -21.0454

 Total job time:  1384.58s(wall), 43478.12s(cpu)
        *  Thank you very much for using Q-Chem.  Have a nice day.  *
