 Q-Chem 6.2 (devel), Q-Chem, Inc., Pleasanton, CA (2024)
 Q-Chem 6.2.2 for Intel X86 EM64T Linux

User input:
--------------------------------------------------------------
$molecule
read
$end

$rem
method                    b3lyp
basis                     cc-pv5z
mem_total                 63000
mem_static                8000
thresh                    12
scf_convergence           8
xc_grid                   000075000302
max_scf_cycles            2000
symmetry                  false
sym_ignore                true
scf_guess                 read
mom_start                 1
cis_n_roots               200
cis_triplets              false
rpa                       false
trnss                     true
trtype                    2
n_sol                     113
nto_pairs                 2
gui                       2
print_orbitals            true
state_analysis            true
$end

$solute
5 1413 1414 1415 1416 1417 1418 1419 1420 1421 1422 1423 1424 1425 1426 1427 1428 1429 1430 1431 1432 1433 1434 1435 1436 1437 1438 1439 1440 1441 1442 1443 1444 1445 1446 1447 1448 1449 1450 1451 1452 1453 1454 1455 1456 1457 1458 1459 1460 1461 1462 1463 1464 1465 1466 1467 1468 1469 1470 1471 1472 1473 1474 1475 1476 1477 1478 1479 1480 1481 1482 1483 1484 1485 1486 1487 1488 1489 1490 1491 1492 1493 1494 1495 1496 1497 1498 1499 1500 1501 1502 1503 1504 1505 1506 1507 1508 1509 1510 1511 1512 1513 1514 1515 1516 1517 1518 1519 1520 1521 1522 1523 1524
$end
--------------------------------------------------------------

             Standard Nuclear Orientation (Angstroms)
    I     Atom           X                Y                Z
 ----------------------------------------------------------------
    1      O      -0.1870600000     0.4079100000     0.8353000000
    2      H      -0.8690600000     0.6117100000     0.2213000000
    3      H      -0.1744600000     1.1012100000     1.4823000000
    4      O       0.2809400000    -0.3987900000    -2.7917000000
    5      H       0.5444400000    -1.2950900000    -2.5627000000
    6      H      -0.5869600000    -0.3085900000    -2.4447000000
    7      O       2.3574400000    -0.8474900000    -0.5717000000
    8      H       1.5353400000    -0.5364900000    -0.9397000000
    9      H       2.9983900000    -0.5906900000    -1.2677000000
   10      O      -0.7711600000    -2.5495900000     0.4993000000
   11      H      -0.8173600000    -3.4179900000     1.0153000000
   12      H      -0.4970600000    -1.8841900000     1.1493000000
   13      O       0.8000400000     2.7072100000     2.5423000000
   14      H       0.5150400000     3.6204100000     2.3543000000
   15      H       1.2894400000     2.6250100000     3.3843000000
   16      O      -2.5073600000     1.3416100000    -1.3347000000
   17      H      -2.6361600000     2.1976100000    -0.9037000000
   18      H      -3.4237600000     0.9553100000    -1.3417000000
   19      O       3.2582000000     1.3597100000     1.5613000000
   20      H       2.3841400000     1.7191100000     1.8563000000
   21      H       3.0237900000     0.6256100000     0.9573000000
   22      O      -3.1151600000    -2.1013900000    -0.7937000000
   23      H      -2.8666600000    -2.1794900000    -1.7257000000
   24      H      -2.2588600000    -1.9609900000    -0.3837000000
 ----------------------------------------------------------------

    2    -611.8187333598      2.76e-10  Convergence criterion met
 Total energy =  -611.81873336

         TDDFT/TDA Excitation Energies
 ---------------------------------------------------

 Excited state   1: excitation energy (eV) =    1016.7076
 Total energy for state   1:                  -574.45541740 au
    Multiplicity: Singlet
    Trans. Mom.: -0.0031 X   0.0079 Y   0.0037 Z
    Strength   :     0.0021065600
    D(    5) --> V( 1374) amplitude = -0.3400
    D(    5) --> V( 1376) amplitude = -0.3732
    D(    5) --> V( 1377) amplitude =  0.4767
    D(    5) --> V( 1380) amplitude =  0.3655
    D(    5) --> V( 1384) amplitude =  0.3211
    D(    5) --> V( 1385) amplitude = -0.3741

 Excited state   2: excitation energy (eV) =    1018.1047
 Total energy for state   2:                  -574.40407525 au
    Multiplicity: Singlet
    Trans. Mom.: -0.0012 X   0.0044 Y   0.0012 Z
    Strength   :     0.0005515123
    D(    5) --> V( 1374) amplitude = -0.3069
    D(    5) --> V( 1377) amplitude =  0.3835
    D(    5) --> V( 1379) amplitude =  0.4532
    D(    5) --> V( 1380) amplitude = -0.3623
    D(    5) --> V( 1381) amplitude = -0.2290
    D(    5) --> V( 1384) amplitude = -0.3111
    D(    5) --> V( 1385) amplitude =  0.4683

 Excited state   3: excitation energy (eV) =    1020.6586
 Total energy for state   3:                  -574.31022080 au
    Multiplicity: Singlet
    Trans. Mom.:  0.0001 X  -0.0000 Y   0.0003 Z
    Strength   :     0.0000022693
    D(    5) --> V( 1373) amplitude =  0.9808

 Excited state   4: excitation energy (eV) =    1020.8142
 Total energy for state   4:                  -574.30450331 au
    Multiplicity: Singlet
    Trans. Mom.: -0.0006 X   0.0003 Y   0.0001 Z
    Strength   :     0.0000111896
    D(    5) --> V( 1374) amplitude = -0.6588
    D(    5) --> V( 1375) amplitude =  0.6750
    D(    5) --> V( 1376) amplitude =  0.2257

 Excited state   5: excitation energy (eV) =    1020.9054
 Total energy for state   5:                  -574.30115156 au
    Multiplicity: Singlet
    Trans. Mom.:  0.0006 X   0.0008 Y   0.0009 Z
    Strength   :     0.0000442649
    D(    5) --> V( 1374) amplitude =  0.4630
    D(    5) --> V( 1375) amplitude =  0.6989
    D(    5) --> V( 1376) amplitude = -0.4472
    D(    5) --> V( 1377) amplitude =  0.3015

 Excited state   6: excitation energy (eV) =    1021.1206
 Total energy for state   6:                  -574.29324439 au
    Multiplicity: Singlet
    Trans. Mom.: -0.0016 X  -0.0001 Y  -0.0013 Z
    Strength   :     0.0001067405
    D(    5) --> V( 1374) amplitude =  0.3481
    D(    5) --> V( 1376) amplitude =  0.5546
    D(    5) --> V( 1379) amplitude =  0.6764
    D(    5) --> V( 1380) amplitude =  0.2404

 Excited state   7: excitation energy (eV) =    1021.1968
 Total energy for state   7:                  -574.29044354 au
    Multiplicity: Singlet
    Trans. Mom.:  0.0004 X  -0.0004 Y  -0.0009 Z
    Strength   :     0.0000297056
    D(    5) --> V( 1376) amplitude =  0.5172
    D(    5) --> V( 1377) amplitude =  0.6793
    D(    5) --> V( 1379) amplitude = -0.4972

 Excited state   8: excitation energy (eV) =    1021.5708
 Total energy for state   8:                  -574.27669812 au
    Multiplicity: Singlet
    Trans. Mom.: -0.0000 X   0.0000 Y   0.0003 Z
    Strength   :     0.0000024303
    D(    5) --> V( 1378) amplitude =  0.9973

 Excited state   9: excitation energy (eV) =    1022.0357
 Total energy for state   9:                  -574.25961262 au
    Multiplicity: Singlet
    Trans. Mom.:  0.0015 X  -0.0011 Y   0.0009 Z
    Strength   :     0.0001017649
    D(    5) --> V( 1380) amplitude =  0.7645
    D(    5) --> V( 1381) amplitude = -0.4415
    D(    5) --> V( 1384) amplitude = -0.3456
    D(    5) --> V( 1385) amplitude =  0.2428

 Excited state  10: excitation energy (eV) =    1022.1538
 Total energy for state  10:                  -574.25527428 au
    Multiplicity: Singlet
    Trans. Mom.: -0.0004 X  -0.0010 Y  -0.0010 Z
    Strength   :     0.0000559946
    D(    5) --> V( 1381) amplitude =  0.5227
    D(    5) --> V( 1382) amplitude =  0.8111

 Excited state  11: excitation energy (eV) =    1022.2004
 Total energy for state  11:                  -574.25356275 au
    Multiplicity: Singlet
    Trans. Mom.:  0.0007 X  -0.0006 Y   0.0002 Z
    Strength   :     0.0000222938
    D(    5) --> V( 1381) amplitude =  0.6154
    D(    5) --> V( 1382) amplitude = -0.5325
    D(    5) --> V( 1383) amplitude =  0.4696
    D(    5) --> V( 1384) amplitude = -0.2393

 Excited state  12: excitation energy (eV) =    1022.4612
 Total energy for state  12:                  -574.24397556 au
    Multiplicity: Singlet
    Trans. Mom.: -0.0000 X   0.0009 Y   0.0005 Z
    Strength   :     0.0000249001
    D(    5) --> V( 1381) amplitude = -0.2670
    D(    5) --> V( 1383) amplitude =  0.8401
    D(    5) --> V( 1384) amplitude =  0.3685

 Excited state  13: excitation energy (eV) =    1022.5448
 Total energy for state  13:                  -574.24090505 au
    Multiplicity: Singlet
    Trans. Mom.:  0.0006 X  -0.0000 Y   0.0004 Z
    Strength   :     0.0000129128
    D(    5) --> V( 1384) amplitude =  0.6714
    D(    5) --> V( 1385) amplitude =  0.7104

 Excited state  14: excitation energy (eV) =    1023.7103
 Total energy for state  14:                  -574.19807418 au
    Multiplicity: Singlet
    Trans. Mom.: -0.0000 X  -0.0000 Y  -0.0003 Z
    Strength   :     0.0000016164
    D(    5) --> V( 1386) amplitude =  0.9985

 Excited state  15: excitation energy (eV) =    1024.7653
 Total energy for state  15:                  -574.15930448 au
    Multiplicity: Singlet
    Trans. Mom.:  0.0005 X  -0.0002 Y   0.0003 Z
    Strength   :     0.0000091012
    D(    5) --> V( 1387) amplitude =  0.9986

 Excited state  16: excitation energy (eV) =    1025.6423
 Total energy for state  16:                  -574.12707247 au
    Multiplicity: Singlet
    Trans. Mom.:  0.0003 X  -0.0003 Y  -0.0001 Z
    Strength   :     0.0000043706
    D(    5) --> V( 1388) amplitude =  0.9999

 Excited state  17: excitation energy (eV) =    1027.3198
 Total energy for state  17:                  -574.06542727 au
    Multiplicity: Singlet
    Trans. Mom.: -0.0011 X  -0.0002 Y  -0.0014 Z
    Strength   :     0.0000809178
    D(    5) --> V( 1389) amplitude =  0.9997

 Excited state  18: excitation energy (eV) =    1027.7392
 Total energy for state  18:                  -574.05001573 au
    Multiplicity: Singlet
    Trans. Mom.:  0.0012 X   0.0013 Y   0.0027 Z
    Strength   :     0.0002639601
    D(    5) --> V( 1390) amplitude =  0.9969

 Excited state  19: excitation energy (eV) =    1028.2521
 Total energy for state  19:                  -574.03116589 au
    Multiplicity: Singlet
    Trans. Mom.:  0.0017 X   0.0014 Y   0.0034 Z
    Strength   :     0.0004052165
    D(    5) --> V( 1391) amplitude =  0.9919

 Excited state  20: excitation energy (eV) =    1028.9704
 Total energy for state  20:                  -574.00477011 au
    Multiplicity: Singlet
    Trans. Mom.: -0.0002 X  -0.0001 Y  -0.0003 Z
    Strength   :     0.0000030696
    D(    5) --> V( 1392) amplitude =  0.9999

 Excited state  21: excitation energy (eV) =    1029.3201
 Total energy for state  21:                  -573.99191691 au
    Multiplicity: Singlet
    Trans. Mom.:  0.0113 X   0.0105 Y   0.0220 Z
    Strength   :     0.0182238281
    D(    5) --> V( 1398) amplitude =  0.6592
    D(    5) --> V( 1399) amplitude = -0.4348
    D(    5) --> V( 1402) amplitude = -0.2400
    D(    5) --> V( 1403) amplitude =  0.4909

 Excited state  22: excitation energy (eV) =    1030.6845
 Total energy for state  22:                  -573.94177769 au
    Multiplicity: Singlet
    Trans. Mom.: -0.0001 X  -0.0000 Y  -0.0008 Z
    Strength   :     0.0000185986
    D(    5) --> V( 1393) amplitude =  0.9952

 Excited state  23: excitation energy (eV) =    1031.0178
 Total energy for state  23:                  -573.92952952 au
    Multiplicity: Singlet
    Trans. Mom.: -0.0008 X   0.0011 Y   0.0002 Z
    Strength   :     0.0000459297
    D(    5) --> V( 1394) amplitude =  0.9914

 Excited state  24: excitation energy (eV) =    1031.2154
 Total energy for state  24:                  -573.92226531 au
    Multiplicity: Singlet
    Trans. Mom.: -0.0000 X   0.0004 Y   0.0002 Z
    Strength   :     0.0000056517
    D(    5) --> V( 1395) amplitude =  0.9995

 Excited state  25: excitation energy (eV) =    1031.3819
 Total energy for state  25:                  -573.91614604 au
    Multiplicity: Singlet
    Trans. Mom.:  0.0010 X  -0.0010 Y   0.0002 Z
    Strength   :     0.0000526002
    D(    5) --> V( 1396) amplitude =  0.9918

 Excited state  26: excitation energy (eV) =    1031.9308
 Total energy for state  26:                  -573.89597709 au
    Multiplicity: Singlet
    Trans. Mom.:  0.0000 X  -0.0002 Y  -0.0004 Z
    Strength   :     0.0000050139
    D(    5) --> V( 1397) amplitude =  0.9966

 Excited state  27: excitation energy (eV) =    1033.1061
 Total energy for state  27:                  -573.85278591 au
    Multiplicity: Singlet
    Trans. Mom.: -0.0015 X  -0.0011 Y  -0.0018 Z
    Strength   :     0.0001722846
    D(    5) --> V( 1398) amplitude =  0.6419
    D(    5) --> V( 1399) amplitude =  0.7261

 Excited state  28: excitation energy (eV) =    1033.2614
 Total energy for state  28:                  -573.84707587 au
    Multiplicity: Singlet
    Trans. Mom.: -0.0015 X   0.0003 Y  -0.0018 Z
    Strength   :     0.0001391681
    D(    5) --> V( 1400) amplitude =  0.9378
    D(    5) --> V( 1401) amplitude =  0.2866

 Excited state  29: excitation energy (eV) =    1033.4687
 Total energy for state  29:                  -573.83945946 au
    Multiplicity: Singlet
    Trans. Mom.: -0.0033 X  -0.0012 Y  -0.0039 Z
    Strength   :     0.0007003810
    D(    5) --> V( 1398) amplitude =  0.2606
    D(    5) --> V( 1399) amplitude = -0.4686
    D(    5) --> V( 1400) amplitude = -0.2580
    D(    5) --> V( 1401) amplitude =  0.5619
    D(    5) --> V( 1403) amplitude = -0.5263

 Excited state  30: excitation energy (eV) =    1033.6141
 Total energy for state  30:                  -573.83411543 au
    Multiplicity: Singlet
    Trans. Mom.:  0.0021 X   0.0003 Y   0.0030 Z
    Strength   :     0.0003495771
    D(    5) --> V( 1401) amplitude =  0.7476
    D(    5) --> V( 1402) amplitude = -0.3147
    D(    5) --> V( 1403) amplitude =  0.4762

 Excited state  31: excitation energy (eV) =    1033.8924
 Total energy for state  31:                  -573.82388876 au
    Multiplicity: Singlet
    Trans. Mom.:  0.0024 X   0.0000 Y   0.0016 Z
    Strength   :     0.0002098673
    D(    5) --> V( 1402) amplitude =  0.8924
    D(    5) --> V( 1403) amplitude =  0.3255

 Excited state  32: excitation energy (eV) =    1034.8514
 Total energy for state  32:                  -573.78864603 au
    Multiplicity: Singlet
    Trans. Mom.:  0.0055 X  -0.0048 Y   0.0029 Z
    Strength   :     0.0015434973
    D(    5) --> V( 1403) amplitude = -0.2625
    D(    5) --> V( 1404) amplitude =  0.3733
    D(    5) --> V( 1406) amplitude =  0.5521
    D(    5) --> V( 1409) amplitude =  0.5877
    D(    5) --> V( 1410) amplitude = -0.2130

 Excited state  33: excitation energy (eV) =    1035.0944
 Total energy for state  33:                  -573.77971722 au
    Multiplicity: Singlet
    Trans. Mom.: -0.0023 X   0.0015 Y  -0.0015 Z
    Strength   :     0.0002447343
    D(    5) --> V( 1404) amplitude =  0.9260
    D(    5) --> V( 1406) amplitude = -0.2354
    D(    5) --> V( 1409) amplitude = -0.2311

 Excited state  34: excitation energy (eV) =    1035.5396
 Total energy for state  34:                  -573.76335492 au
    Multiplicity: Singlet
    Trans. Mom.: -0.0009 X   0.0010 Y   0.0002 Z
    Strength   :     0.0000455258
    D(    5) --> V( 1405) amplitude =  0.9557

 Excited state  35: excitation energy (eV) =    1036.9520
 Total energy for state  35:                  -573.71145153 au
    Multiplicity: Singlet
    Trans. Mom.: -0.0001 X   0.0008 Y  -0.0003 Z
    Strength   :     0.0000177893
    D(    5) --> V( 1406) amplitude = -0.2790
    D(    5) --> V( 1413) amplitude =  0.9284

 Excited state  36: excitation energy (eV) =    1037.4576
 Total energy for state  36:                  -573.69286935 au
    Multiplicity: Singlet
    Trans. Mom.: -0.0000 X   0.0006 Y   0.0003 Z
    Strength   :     0.0000121158
    D(    5) --> V( 1406) amplitude =  0.7030
    D(    5) --> V( 1409) amplitude = -0.5782
    D(    5) --> V( 1413) amplitude =  0.3267

 Excited state  37: excitation energy (eV) =    1038.0236
 Total energy for state  37:                  -573.67206877 au
    Multiplicity: Singlet
    Trans. Mom.: -0.0001 X  -0.0005 Y   0.0002 Z
    Strength   :     0.0000084969
    D(    5) --> V( 1407) amplitude =  0.9946

 Excited state  38: excitation energy (eV) =    1038.3038
 Total energy for state  38:                  -573.66177238 au
    Multiplicity: Singlet
    Trans. Mom.:  0.0001 X  -0.0001 Y  -0.0001 Z
    Strength   :     0.0000002538
    D(    5) --> V( 1408) amplitude =  0.9923

 Excited state  39: excitation energy (eV) =    1040.0334
 Total energy for state  39:                  -573.59821104 au
    Multiplicity: Singlet
    Trans. Mom.: -0.0001 X   0.0004 Y   0.0003 Z
    Strength   :     0.0000072360
    D(    5) --> V( 1409) amplitude =  0.3273
    D(    5) --> V( 1410) amplitude =  0.9431

 Excited state  40: excitation energy (eV) =    1040.7210
 Total energy for state  40:                  -573.57294306 au
    Multiplicity: Singlet
    Trans. Mom.:  0.0001 X  -0.0006 Y  -0.0004 Z
    Strength   :     0.0000153828
    D(    5) --> V( 1411) amplitude =  0.9903

 Excited state  41: excitation energy (eV) =    1041.4798
 Total energy for state  41:                  -573.54505821 au
    Multiplicity: Singlet
    Trans. Mom.: -0.0000 X  -0.0001 Y  -0.0004 Z
    Strength   :     0.0000052119
    D(    5) --> V( 1412) amplitude =  0.9966

 Excited state  42: excitation energy (eV) =    1043.2909
 Total energy for state  42:                  -573.47850091 au
    Multiplicity: Singlet
    Trans. Mom.:  0.0009 X  -0.0008 Y   0.0003 Z
    Strength   :     0.0000424593
    D(    5) --> V( 1414) amplitude =  0.9741
    D(    5) --> V( 1415) amplitude =  0.2149

 Excited state  43: excitation energy (eV) =    1043.3642
 Total energy for state  43:                  -573.47580548 au
    Multiplicity: Singlet
    Trans. Mom.:  0.0001 X  -0.0004 Y  -0.0003 Z
    Strength   :     0.0000067822
    D(    5) --> V( 1414) amplitude = -0.2186
    D(    5) --> V( 1415) amplitude =  0.9596

 Excited state  44: excitation energy (eV) =    1043.8612
 Total energy for state  44:                  -573.45754294 au
    Multiplicity: Singlet
    Trans. Mom.:  0.0000 X  -0.0005 Y  -0.0009 Z
    Strength   :     0.0000263022
    D(    5) --> V( 1416) amplitude =  0.7266
    D(    5) --> V( 1417) amplitude = -0.6030

 Excited state  45: excitation energy (eV) =    1043.9301
 Total energy for state  45:                  -573.45501047 au
    Multiplicity: Singlet
    Trans. Mom.:  0.0002 X  -0.0001 Y   0.0004 Z
    Strength   :     0.0000053390
    D(    5) --> V( 1416) amplitude =  0.5496
    D(    5) --> V( 1417) amplitude =  0.7648
    D(    5) --> V( 1418) amplitude = -0.3328

 Excited state  46: excitation energy (eV) =    1043.9622
 Total energy for state  46:                  -573.45382941 au
    Multiplicity: Singlet
    Trans. Mom.:  0.0000 X  -0.0001 Y   0.0000 Z
    Strength   :     0.0000004621
    D(    5) --> V( 1416) amplitude =  0.3460
    D(    5) --> V( 1418) amplitude =  0.9207

 Excited state  47: excitation energy (eV) =    1044.6354
 Total energy for state  47:                  -573.42909225 au
    Multiplicity: Singlet
    Trans. Mom.: -0.0002 X  -0.0011 Y   0.0002 Z
    Strength   :     0.0000347032
    D(    5) --> V( 1419) amplitude = -0.4987
    D(    5) --> V( 1422) amplitude =  0.4542
    D(    5) --> V( 1439) amplitude =  0.5762

 Excited state  48: excitation energy (eV) =    1044.8323
 Total energy for state  48:                  -573.42185550 au
    Multiplicity: Singlet
    Trans. Mom.:  0.0004 X  -0.0012 Y  -0.0002 Z
    Strength   :     0.0000391775
    D(    5) --> V( 1419) amplitude =  0.8556
    D(    5) --> V( 1422) amplitude =  0.3395
    D(    5) --> V( 1439) amplitude =  0.2990

 Excited state 100: excitation energy (eV) =    1092.4498
 Excited state 101: excitation energy (eV) =    1109.5550
 Excited state 102: excitation energy (eV) =    1109.9277
 Excited state 103: excitation energy (eV) =    1115.4072
 Excited state 104: excitation energy (eV) =    1115.6520
 Excited state 105: excitation energy (eV) =    1115.8334
 Excited state 106: excitation energy (eV) =    1115.9806
 Excited state 107: excitation energy (eV) =    1116.3921
 Excited state 108: excitation energy (eV) =    1116.5398
 Excited state 109: excitation energy (eV) =    1116.8349
 Excited state 110: excitation energy (eV) =    1116.9582
 Excited state 111: excitation energy (eV) =    1117.3367
 Excited state 112: excitation energy (eV) =    1117.6307

                    Orbital Energies (a.u.)
 --------------------------------------------------------------

 Alpha MOs
 -- Occupied --
-19.1737 -19.1609 -19.1429 -19.1357 -19.1234 -19.1197 -19.1073 -19.0880
 -1.0508  -1.0362  -1.0292  -1.0210  -1.0161  -1.0041  -0.9940  -0.9634
 -0.5888  -0.5516  -0.5489  -0.5463  -0.5332  -0.5159  -0.5122  -0.4877
 -0.4315  -0.4266  -0.4171  -0.4035  -0.3956  -0.3912  -0.3753  -0.3680
 -0.3482  -0.3466  -0.3305  -0.3280  -0.3222  -0.3084  -0.3000  -0.2786

                    Cartesian Multipole Moments
 -----------------------------------------------------------------
    Charge (ESU x 10^10)
                 0.0000
    Dipole Moment (Debye)
         X      -3.6136      Y       2.8747      Z       1.8453
       Tot       4.9727
    Quadrupole Moments (Debye-Ang)
        XX     -67.8916     XY     -12.5507     YY     -36.1267
        XZ      -3.4512     YZ       8.7835     ZZ     -46.0743

 Total job time:  358423.32s(wall), 358186.53s(cpu)
        *  Thank you very much for using Q-Chem.  Have a nice day.  *
