 Q-Chem 6.2 (devel), Q-Chem, Inc., Pleasanton, CA (2024)
 Q-Chem 6.2.2 for Intel X86 EM64T Linux

User input:
--------------------------------------------------------------
$molecule
0 1
O 0.07319 7.74968 0.86993
O 1.83339 -16.23832 -0.93507
H 2.04089 -15.40532 -1.34407
H 0.94919 -16.13732 -0.44207
O -0.16481 -15.61032 1.11393
H -1.06881 -15.31932 0.81593
H -0.37681 -16.52432 1.41693
O -1.05181 6.77068 -1.33207
H -0.28881 6.35568 -1.77507
H -1.16681 7.59968 -1.78707
O 0.83619 5.13468 1.21393
H 1.61569 4.80128 0.76093
H 0.04519 4.74218 0.78093
H 0.40319 6.92068 1.19893
H -0.48281 7.51168 0.07993
O -2.84081 5.96168 1.36793
H -2.17481 6.48068 1.86393
H -3.13981 6.47568 0.57293
O 1.33519 6.18568 -2.18207
H 1.68279 6.96868 -2.70307
H 1.63579 6.26368 -1.28807
$end

$rem
method                    b3lyp
basis                     cc-pv5z
mem_total                 48000
mem_static                8000
thresh                    12
scf_convergence           8
xc_grid                   000075000302
max_scf_cycles            2000
symmetry                  false
sym_ignore                true
print_orbitals true
$end
gui                       2
molden_format true
--------------------------------------------------------------

             Standard Nuclear Orientation (Angstroms)
    I     Atom           X                Y                Z
 ----------------------------------------------------------------
    1      O       0.0731900000     7.7496800000     0.8699300000
    2      O       1.8333900000   -16.2383200000    -0.9350700000
    3      H       2.0408900000   -15.4053200000    -1.3440700000
    4      H       0.9491900000   -16.1373200000    -0.4420700000
    5      O      -0.1648100000   -15.6103200000     1.1139300000
    6      H      -1.0688100000   -15.3193200000     0.8159300000
    7      H      -0.3768100000   -16.5243200000     1.4169300000
    8      O      -1.0518100000     6.7706800000    -1.3320700000
    9      H      -0.2888100000     6.3556800000    -1.7750700000
   10      H      -1.1668100000     7.5996800000    -1.7870700000
   11      O       0.8361900000     5.1346800000     1.2139300000
   12      H       1.6156900000     4.8012800000     0.7609300000
   13      H       0.0451900000     4.7421800000     0.7809300000
   14      H       0.4031900000     6.9206800000     1.1989300000
   15      H      -0.4828100000     7.5116800000     0.0799300000
   16      O      -2.8408100000     5.9616800000     1.3679300000
   17      H      -2.1748100000     6.4806800000     1.8639300000
   18      H      -3.1398100000     6.4756800000     0.5729300000
   19      O       1.3351900000     6.1856800000    -2.1820700000
   20      H       1.6827900000     6.9686800000    -2.7030700000
   21      H       1.6357900000     6.2636800000    -1.2880700000
 ----------------------------------------------------------------

   12    -535.3245029883      1.45e-09  Convergence criterion met
 Total energy =  -535.32450299

                    Orbital Energies (a.u.)
 --------------------------------------------------------------

 Alpha MOs
 -- Occupied --
-19.1810 -19.1676 -19.1615 -19.1360 -19.1148 -19.1038 -19.0766  -1.0668
 -1.0431  -1.0393  -1.0298  -0.9857  -0.9793  -0.9640  -0.5901  -0.5679
 -0.5539  -0.5457  -0.5178  -0.5108  -0.5010  -0.4489  -0.4335  -0.4270
 -0.4179  -0.3815  -0.3715  -0.3688  -0.3566  -0.3420  -0.3393  -0.3149
 -0.3014  -0.2929  -0.2780

          Ground-State Mulliken Net Atomic Charges

     Atom                 Charge (a.u.)
  ----------------------------------------
      1 O                    -0.801054
      2 O                    -0.642786
      3 H                     0.274233
      4 H                     0.338418
      5 O                    -0.618888
      6 H                     0.316871
      7 H                     0.332150
      8 O                    -0.722036
      9 H                     0.394801
     10 H                     0.328526
     11 O                    -0.659853
     12 H                     0.327906
     13 H                     0.364125
     14 H                     0.371377
     15 H                     0.357969
     16 O                    -0.689244
     17 H                     0.349410
     18 H                     0.338734
     19 O                    -0.666975
     20 H                     0.351963
     21 H                     0.354351
  ----------------------------------------
  Sum of atomic charges =     0.000000

                    Cartesian Multipole Moments
 -----------------------------------------------------------------
    Charge (ESU x 10^10)
                 0.0000
    Dipole Moment (Debye)
         X      -0.1740      Y       0.6109      Z      -3.6828
       Tot       3.7372
    Quadrupole Moments (Debye-Ang)
        XX     -48.6048     XY      66.8540     YY     -69.7126
        XZ      -0.0962     YZ     -48.7173     ZZ     -47.0622

 Total job time:  4859.47s(wall), 152260.14s(cpu)
        *  Thank you very much for using Q-Chem.  Have a nice day.  *
