 Q-Chem 6.2 (devel), Q-Chem, Inc., Pleasanton, CA (2024)
 Q-Chem 6.2.2 for Intel X86 EM64T Linux

User input:
--------------------------------------------------------------
$molecule
0 1
O -0.18706 0.40791 0.83530
H -0.86906 0.61171 0.22130
H -0.17446 1.10121 1.48230
O 0.28094 -0.39879 -2.79170
H 0.54444 -1.29509 -2.56270
H -0.58696 -0.30859 -2.44470
O 2.35744 -0.84749 -0.57170
H 1.53534 -0.53649 -0.93970
H 2.99839 -0.59069 -1.26770
O -0.77116 -2.54959 0.49930
H -0.81736 -3.41799 1.01530
H -0.49706 -1.88419 1.14930
O 0.80004 2.70721 2.54230
H 0.51504 3.62041 2.35430
H 1.28944 2.62501 3.38430
O -2.50736 1.34161 -1.33470
H -2.63616 2.19761 -0.90370
H -3.42376 0.95531 -1.34170
O 3.25820 1.35971 1.56130
H 2.38414 1.71911 1.85630
H 3.02379 0.62561 0.95730
O -3.11516 -2.10139 -0.79370
H -2.86666 -2.17949 -1.72570
H -2.25886 -1.96099 -0.38370
$end

$rem
method                    b3lyp
basis                     cc-pv5z
mem_total                 48000
mem_static                8000
thresh                    12
scf_convergence           8
xc_grid                   000075000302
max_scf_cycles            2000
symmetry                  false
sym_ignore                true
print_orbitals true
$end
gui                       2
molden_format true
--------------------------------------------------------------

             Standard Nuclear Orientation (Angstroms)
    I     Atom           X                Y                Z
 ----------------------------------------------------------------
    1      O      -0.1870600000     0.4079100000     0.8353000000
    2      H      -0.8690600000     0.6117100000     0.2213000000
    3      H      -0.1744600000     1.1012100000     1.4823000000
    4      O       0.2809400000    -0.3987900000    -2.7917000000
    5      H       0.5444400000    -1.2950900000    -2.5627000000
    6      H      -0.5869600000    -0.3085900000    -2.4447000000
    7      O       2.3574400000    -0.8474900000    -0.5717000000
    8      H       1.5353400000    -0.5364900000    -0.9397000000
    9      H       2.9983900000    -0.5906900000    -1.2677000000
   10      O      -0.7711600000    -2.5495900000     0.4993000000
   11      H      -0.8173600000    -3.4179900000     1.0153000000
   12      H      -0.4970600000    -1.8841900000     1.1493000000
   13      O       0.8000400000     2.7072100000     2.5423000000
   14      H       0.5150400000     3.6204100000     2.3543000000
   15      H       1.2894400000     2.6250100000     3.3843000000
   16      O      -2.5073600000     1.3416100000    -1.3347000000
   17      H      -2.6361600000     2.1976100000    -0.9037000000
   18      H      -3.4237600000     0.9553100000    -1.3417000000
   19      O       3.2582000000     1.3597100000     1.5613000000
   20      H       2.3841400000     1.7191100000     1.8563000000
   21      H       3.0237900000     0.6256100000     0.9573000000
   22      O      -3.1151600000    -2.1013900000    -0.7937000000
   23      H      -2.8666600000    -2.1794900000    -1.7257000000
   24      H      -2.2588600000    -1.9609900000    -0.3837000000
 ----------------------------------------------------------------

   12    -611.8187333598      1.37e-09  Convergence criterion met
 Total energy =  -611.81873336

                    Orbital Energies (a.u.)
 --------------------------------------------------------------

 Alpha MOs
 -- Occupied --
-19.1737 -19.1609 -19.1429 -19.1357 -19.1234 -19.1197 -19.1073 -19.0880
 -1.0508  -1.0362  -1.0292  -1.0210  -1.0161  -1.0041  -0.9940  -0.9634
 -0.5888  -0.5516  -0.5489  -0.5463  -0.5332  -0.5159  -0.5122  -0.4877
 -0.4315  -0.4266  -0.4171  -0.4035  -0.3956  -0.3912  -0.3753  -0.3680
 -0.3482  -0.3466  -0.3305  -0.3280  -0.3222  -0.3084  -0.3000  -0.2786

          Ground-State Mulliken Net Atomic Charges

     Atom                 Charge (a.u.)
  ----------------------------------------
      1 O                    -0.667451
      2 H                     0.340149
      3 H                     0.313664
      4 O                    -0.664234
      5 H                     0.321250
      6 H                     0.353033
      7 O                    -0.724165
      8 H                     0.380488
      9 H                     0.334662
     10 O                    -0.654649
     11 H                     0.307974
     12 H                     0.360493
     13 O                    -0.630947
     14 H                     0.316399
     15 H                     0.345674
     16 O                    -0.608433
     17 H                     0.300687
     18 H                     0.319959
     19 O                    -0.755307
     20 H                     0.347328
     21 H                     0.380988
     22 O                    -0.672915
     23 H                     0.276443
     24 H                     0.378909
  ----------------------------------------
  Sum of atomic charges =     0.000000

                    Cartesian Multipole Moments
 -----------------------------------------------------------------
    Charge (ESU x 10^10)
                 0.0000
    Dipole Moment (Debye)
         X      -3.6136      Y       2.8747      Z       1.8453
       Tot       4.9727
    Quadrupole Moments (Debye-Ang)
        XX     -67.8916     XY     -12.5507     YY     -36.1267
        XZ      -3.4512     YZ       8.7835     ZZ     -46.0743

 Total job time:  8548.81s(wall), 269431.14s(cpu)
        *  Thank you very much for using Q-Chem.  Have a nice day.  *
