 Q-Chem 6.2 (devel), Q-Chem, Inc., Pleasanton, CA (2024)
 Q-Chem 6.2.2 for Intel X86 EM64T Linux

User input:
--------------------------------------------------------------
$molecule
0 1
O -0.13200 1.38659 -1.07641
O -1.17880 -1.19151 -1.27571
H -0.79110 -2.04641 -1.58011
H -2.14840 -1.40751 -1.36911
H -0.11500 0.68959 -1.67301
H -0.64020 0.99959 -0.35721
O 1.86930 1.37159 0.84139
H 2.77650 1.56959 0.55139
H 1.34170 1.45659 0.07569
O -0.55040 -1.45501 1.64339
H -0.94320 -1.44671 0.76139
H 0.39080 -1.58711 1.48539
$end

$rem
method                    b3lyp
basis                     cc-pv5z
mem_total                 48000
mem_static                8000
thresh                    12
scf_convergence           8
xc_grid                   000075000302
max_scf_cycles            2000
symmetry                  false
sym_ignore                true
print_orbitals true
$end
gui                       2
molden_format true
--------------------------------------------------------------

             Standard Nuclear Orientation (Angstroms)
    I     Atom           X                Y                Z
 ----------------------------------------------------------------
    1      O      -0.1320000000     1.3865900000    -1.0764100000
    2      O      -1.1788000000    -1.1915100000    -1.2757100000
    3      H      -0.7911000000    -2.0464100000    -1.5801100000
    4      H      -2.1484000000    -1.4075100000    -1.3691100000
    5      H      -0.1150000000     0.6895900000    -1.6730100000
    6      H      -0.6402000000     0.9995900000    -0.3572100000
    7      O       1.8693000000     1.3715900000     0.8413900000
    8      H       2.7765000000     1.5695900000     0.5513900000
    9      H       1.3417000000     1.4565900000     0.0756900000
   10      O      -0.5504000000    -1.4550100000     1.6433900000
   11      H      -0.9432000000    -1.4467100000     0.7613900000
   12      H       0.3908000000    -1.5871100000     1.4853900000
 ----------------------------------------------------------------

   12    -305.9017420928      2.36e-09  Convergence criterion met
 Total energy =  -305.90174209

                    Orbital Energies (a.u.)
 --------------------------------------------------------------

 Alpha MOs
 -- Occupied --
-19.1926 -19.1311 -19.1140 -19.0963  -1.0653  -1.0352  -0.9996  -0.9888
 -0.5704  -0.5449  -0.5217  -0.5112  -0.4716  -0.4062  -0.3932  -0.3688
 -0.3644  -0.3275  -0.3057  -0.2926

          Ground-State Mulliken Net Atomic Charges

     Atom                 Charge (a.u.)
  ----------------------------------------
      1 O                    -0.727230
      2 O                    -0.670860
      3 H                     0.342332
      4 H                     0.351179
      5 H                     0.372157
      6 H                     0.375789
      7 O                    -0.637007
      8 H                     0.264142
      9 H                     0.344204
     10 O                    -0.650674
     11 H                     0.328670
     12 H                     0.307297
  ----------------------------------------
  Sum of atomic charges =     0.000000

                    Cartesian Multipole Moments
 -----------------------------------------------------------------
    Charge (ESU x 10^10)
                 0.0000
    Dipole Moment (Debye)
         X      -0.9160      Y      -3.4378      Z      -4.5687
       Tot       5.7905
    Quadrupole Moments (Debye-Ang)
        XX     -18.1855     XY       2.3952     YY     -26.2868
        XZ       2.5822     YZ       6.6661     ZZ     -31.3459

 Total job time:  1435.82s(wall), 45178.20s(cpu)
        *  Thank you very much for using Q-Chem.  Have a nice day.  *
