 Q-Chem 6.2 (devel), Q-Chem, Inc., Pleasanton, CA (2024)
 Q-Chem 6.2.2 for Intel X86 EM64T Linux

User input:
--------------------------------------------------------------
$molecule
0 1
O -0.22545 -0.18402 0.17433
O -0.92581 1.13098 -1.81367
H -1.10698 0.76098 -2.69667
H -0.12816 1.68398 -1.94667
H -0.67032 -0.96992 0.47733
H -0.55514 0.08098 -0.66067
O -0.51898 -3.48152 0.01833
H 0.25974 -2.87942 0.11033
H -1.13188 -3.11452 -0.60867
O 2.06904 -2.34862 -0.32067
H 2.66834 -2.97212 0.10533
H 2.43524 -1.44312 -0.26167
O 2.47804 0.54998 0.36633
H 1.53624 0.52998 0.41633
H 2.57974 1.09998 -0.46167
O 0.36174 2.23798 2.43833
H -0.16136 1.73998 1.81333
H 1.07754 1.58798 2.69733
O -3.29446 2.07498 -0.65167
H -3.44176 2.62798 -1.40667
H -2.47436 1.58898 -0.93167
$end

$rem
method                    b3lyp
basis                     cc-pv5z
mem_total                 48000
mem_static                8000
thresh                    12
scf_convergence           8
xc_grid                   000075000302
max_scf_cycles            2000
symmetry                  false
sym_ignore                true
print_orbitals true
$end
gui                       2
molden_format true
--------------------------------------------------------------

             Standard Nuclear Orientation (Angstroms)
    I     Atom           X                Y                Z
 ----------------------------------------------------------------
    1      O      -0.2254500000    -0.1840200000     0.1743300000
    2      O      -0.9258100000     1.1309800000    -1.8136700000
    3      H      -1.1069800000     0.7609800000    -2.6966700000
    4      H      -0.1281600000     1.6839800000    -1.9466700000
    5      H      -0.6703200000    -0.9699200000     0.4773300000
    6      H      -0.5551400000     0.0809800000    -0.6606700000
    7      O      -0.5189800000    -3.4815200000     0.0183300000
    8      H       0.2597400000    -2.8794200000     0.1103300000
    9      H      -1.1318800000    -3.1145200000    -0.6086700000
   10      O       2.0690400000    -2.3486200000    -0.3206700000
   11      H       2.6683400000    -2.9721200000     0.1053300000
   12      H       2.4352400000    -1.4431200000    -0.2616700000
   13      O       2.4780400000     0.5499800000     0.3663300000
   14      H       1.5362400000     0.5299800000     0.4163300000
   15      H       2.5797400000     1.0999800000    -0.4616700000
   16      O       0.3617400000     2.2379800000     2.4383300000
   17      H      -0.1613600000     1.7399800000     1.8133300000
   18      H       1.0775400000     1.5879800000     2.6973300000
   19      O      -3.2944600000     2.0749800000    -0.6516700000
   20      H      -3.4417600000     2.6279800000    -1.4066700000
   21      H      -2.4743600000     1.5889800000    -0.9316700000
 ----------------------------------------------------------------

   12    -535.3309253516      1.33e-09  Convergence criterion met
 Total energy =  -535.33092535

                    Orbital Energies (a.u.)
 --------------------------------------------------------------

 Alpha MOs
 -- Occupied --
-19.2193 -19.1449 -19.1354 -19.1338 -19.1187 -19.1168 -19.1125  -1.1059
 -1.0393  -1.0280  -1.0152  -1.0042  -0.9945  -0.9944  -0.6177  -0.5867
 -0.5483  -0.5375  -0.5291  -0.5273  -0.5102  -0.4800  -0.4370  -0.4211
 -0.4047  -0.3952  -0.3812  -0.3771  -0.3681  -0.3445  -0.3315  -0.3256
 -0.3102  -0.3050  -0.3031

          Ground-State Mulliken Net Atomic Charges

     Atom                 Charge (a.u.)
  ----------------------------------------
      1 O                    -0.717031
      2 O                    -0.670890
      3 H                     0.360078
      4 H                     0.355134
      5 H                     0.330941
      6 H                     0.363022
      7 O                    -0.674321
      8 H                     0.381722
      9 H                     0.283760
     10 O                    -0.665916
     11 H                     0.321135
     12 H                     0.335953
     13 O                    -0.655733
     14 H                     0.368997
     15 H                     0.285084
     16 O                    -0.661743
     17 H                     0.344180
     18 H                     0.320024
     19 O                    -0.657334
     20 H                     0.266079
     21 H                     0.386860
  ----------------------------------------
  Sum of atomic charges =     0.000000

                    Cartesian Multipole Moments
 -----------------------------------------------------------------
    Charge (ESU x 10^10)
                -0.0000
    Dipole Moment (Debye)
         X       1.9000      Y       1.0408      Z      -6.8985
       Tot       7.2307
    Quadrupole Moments (Debye-Ang)
        XX     -51.5064     XY       0.4937     YY     -62.8505
        XZ       6.6770     YZ     -15.1438     ZZ     -38.4741

 Total job time:  6701.96s(wall), 211442.20s(cpu)
        *  Thank you very much for using Q-Chem.  Have a nice day.  *
