 Q-Chem 6.2 (devel), Q-Chem, Inc., Pleasanton, CA (2024)
 Q-Chem 6.2.2 for Intel X86 EM64T Linux

User input:
--------------------------------------------------------------
$molecule
read
$end

$rem
method                    b3lyp
basis                     cc-pv5z
mem_total                 63000
mem_static                8000
thresh                    12
scf_convergence           8
xc_grid                   000075000302
max_scf_cycles            2000
symmetry                  false
sym_ignore                true
scf_guess                 read
mom_start                 1
cis_n_roots               100
cis_triplets              false
rpa                       false
trnss                     true
trtype                    2
n_sol                     99
nto_pairs                 2
gui                       2
print_orbitals            true
state_analysis            true
$end

$solute
3 1234 1235 1236 1237 1238 1239 1240 1241 1242 1243 1244 1245 1246 1247 1248 1249 1250 1251 1252 1253 1254 1255 1256 1257 1258 1259 1260 1261 1262 1263 1264 1265 1266 1267 1268 1269 1270 1271 1272 1273 1274 1275 1276 1277 1278 1279 1280 1281 1282 1283 1284 1285 1286 1287 1288 1289 1290 1291 1292 1293 1294 1295 1296 1297 1298 1299 1300 1301 1302 1303 1304 1305 1306 1307 1308 1309 1310 1311 1312 1313 1314 1315 1316 1317 1318 1319 1320 1321 1322 1323 1324 1325 1326 1327 1328 1329 1330 1331
$end
--------------------------------------------------------------

             Standard Nuclear Orientation (Angstroms)
    I     Atom           X                Y                Z
 ----------------------------------------------------------------
    1      O      -0.2254500000    -0.1840200000     0.1743300000
    2      O      -0.9258100000     1.1309800000    -1.8136700000
    3      H      -1.1069800000     0.7609800000    -2.6966700000
    4      H      -0.1281600000     1.6839800000    -1.9466700000
    5      H      -0.6703200000    -0.9699200000     0.4773300000
    6      H      -0.5551400000     0.0809800000    -0.6606700000
    7      O      -0.5189800000    -3.4815200000     0.0183300000
    8      H       0.2597400000    -2.8794200000     0.1103300000
    9      H      -1.1318800000    -3.1145200000    -0.6086700000
   10      O       2.0690400000    -2.3486200000    -0.3206700000
   11      H       2.6683400000    -2.9721200000     0.1053300000
   12      H       2.4352400000    -1.4431200000    -0.2616700000
   13      O       2.4780400000     0.5499800000     0.3663300000
   14      H       1.5362400000     0.5299800000     0.4163300000
   15      H       2.5797400000     1.0999800000    -0.4616700000
   16      O       0.3617400000     2.2379800000     2.4383300000
   17      H      -0.1613600000     1.7399800000     1.8133300000
   18      H       1.0775400000     1.5879800000     2.6973300000
   19      O      -3.2944600000     2.0749800000    -0.6516700000
   20      H      -3.4417600000     2.6279800000    -1.4066700000
   21      H      -2.4743600000     1.5889800000    -0.9316700000
 ----------------------------------------------------------------

    2    -535.3309253516      1.28e-09  Convergence criterion met
 Total energy =  -535.33092535

         TDDFT/TDA Excitation Energies
 ---------------------------------------------------

 Excited state   1: excitation energy (eV) =    1016.5221
 Total energy for state   1:                  -497.97442854 au
    Multiplicity: Singlet
    Trans. Mom.:  0.0086 X  -0.0019 Y   0.0154 Z
    Strength   :     0.0078399253
    D(    3) --> V( 1199) amplitude =  0.5792
    D(    3) --> V( 1200) amplitude =  0.7038
    D(    3) --> V( 1201) amplitude =  0.3606

 Excited state   2: excitation energy (eV) =    1018.5230
 Total energy for state   2:                  -497.90089727 au
    Multiplicity: Singlet
    Trans. Mom.: -0.0012 X  -0.0048 Y   0.0014 Z
    Strength   :     0.0006517742
    D(    3) --> V( 1199) amplitude =  0.2283
    D(    3) --> V( 1204) amplitude = -0.3329
    D(    3) --> V( 1205) amplitude =  0.5563
    D(    3) --> V( 1206) amplitude =  0.2972
    D(    3) --> V( 1208) amplitude =  0.5728

 Excited state   3: excitation energy (eV) =    1019.9964
 Total energy for state   3:                  -497.84674795 au
    Multiplicity: Singlet
    Trans. Mom.:  0.0045 X   0.0065 Y  -0.0022 Z
    Strength   :     0.0017014271
    D(    3) --> V( 1199) amplitude = -0.2930
    D(    3) --> V( 1200) amplitude =  0.2765
    D(    3) --> V( 1203) amplitude = -0.3729
    D(    3) --> V( 1204) amplitude = -0.2507
    D(    3) --> V( 1207) amplitude =  0.5087
    D(    3) --> V( 1210) amplitude = -0.3882
    D(    3) --> V( 1212) amplitude =  0.2384

 Excited state   4: excitation energy (eV) =    1020.9200
 Total energy for state   4:                  -497.81280866 au
    Multiplicity: Singlet
    Trans. Mom.:  0.0018 X  -0.0009 Y   0.0019 Z
    Strength   :     0.0001897447
    D(    3) --> V( 1199) amplitude =  0.7119
    D(    3) --> V( 1200) amplitude = -0.4845
    D(    3) --> V( 1201) amplitude = -0.3220
    D(    3) --> V( 1207) amplitude =  0.2304

 Excited state   5: excitation energy (eV) =    1021.2639
 Total energy for state   5:                  -497.80017091 au
    Multiplicity: Singlet
    Trans. Mom.:  0.0008 X  -0.0004 Y   0.0009 Z
    Strength   :     0.0000389067
    D(    3) --> V( 1200) amplitude = -0.4207
    D(    3) --> V( 1201) amplitude =  0.8477

 Excited state   6: excitation energy (eV) =    1021.4465
 Total energy for state   6:                  -497.79345870 au
    Multiplicity: Singlet
    Trans. Mom.:  0.0004 X   0.0010 Y  -0.0007 Z
    Strength   :     0.0000452046
    D(    3) --> V( 1202) amplitude =  0.9935

 Excited state   7: excitation energy (eV) =    1022.1043
 Total energy for state   7:                  -497.76928509 au
    Multiplicity: Singlet
    Trans. Mom.:  0.0002 X  -0.0000 Y   0.0005 Z
    Strength   :     0.0000062681
    D(    3) --> V( 1204) amplitude =  0.8064
    D(    3) --> V( 1205) amplitude =  0.5633

 Excited state   8: excitation energy (eV) =    1022.1482
 Total energy for state   8:                  -497.76767148 au
    Multiplicity: Singlet
    Trans. Mom.:  0.0007 X   0.0015 Y  -0.0018 Z
    Strength   :     0.0001489870
    D(    3) --> V( 1203) amplitude =  0.8397
    D(    3) --> V( 1205) amplitude =  0.3364
    D(    3) --> V( 1207) amplitude =  0.2893

 Excited state   9: excitation energy (eV) =    1022.6626
 Total energy for state   9:                  -497.74876915 au
    Multiplicity: Singlet
    Trans. Mom.: -0.0002 X   0.0004 Y  -0.0002 Z
    Strength   :     0.0000048664
    D(    3) --> V( 1204) amplitude =  0.2555
    D(    3) --> V( 1205) amplitude = -0.3179
    D(    3) --> V( 1206) amplitude =  0.6589
    D(    3) --> V( 1207) amplitude =  0.5066
    D(    3) --> V( 1208) amplitude =  0.3020

 Excited state  10: excitation energy (eV) =    1022.8664
 Total energy for state  10:                  -497.74127977 au
    Multiplicity: Singlet
    Trans. Mom.:  0.0002 X   0.0002 Y   0.0003 Z
    Strength   :     0.0000037166
    D(    3) --> V( 1205) amplitude = -0.2903
    D(    3) --> V( 1206) amplitude = -0.5978
    D(    3) --> V( 1208) amplitude =  0.7027

 Excited state  11: excitation energy (eV) =    1023.8092
 Total energy for state  11:                  -497.70663284 au
    Multiplicity: Singlet
    Trans. Mom.: -0.0029 X  -0.0025 Y  -0.0001 Z
    Strength   :     0.0003777074
    D(    3) --> V( 1207) amplitude =  0.5070
    D(    3) --> V( 1209) amplitude = -0.2432
    D(    3) --> V( 1210) amplitude =  0.6822
    D(    3) --> V( 1212) amplitude = -0.3254

 Excited state  12: excitation energy (eV) =    1024.6440
 Total energy for state  12:                  -497.67595185 au
    Multiplicity: Singlet
    Trans. Mom.: -0.0007 X  -0.0009 Y   0.0007 Z
    Strength   :     0.0000407760
    D(    3) --> V( 1209) amplitude =  0.9530
    D(    3) --> V( 1210) amplitude =  0.2868

 Excited state  13: excitation energy (eV) =    1025.2737
 Total energy for state  13:                  -497.65281152 au
    Multiplicity: Singlet
    Trans. Mom.:  0.0003 X   0.0007 Y  -0.0007 Z
    Strength   :     0.0000272605
    D(    3) --> V( 1211) amplitude =  0.9629

 Excited state  14: excitation energy (eV) =    1025.5546
 Total energy for state  14:                  -497.64248946 au
    Multiplicity: Singlet
    Trans. Mom.:  0.0004 X   0.0007 Y   0.0010 Z
    Strength   :     0.0000405011
    D(    3) --> V( 1210) amplitude =  0.4213
    D(    3) --> V( 1212) amplitude =  0.8814

 Excited state  15: excitation energy (eV) =    1027.3761
 Total energy for state  15:                  -497.57555070 au
    Multiplicity: Singlet
    Trans. Mom.: -0.0001 X  -0.0007 Y   0.0004 Z
    Strength   :     0.0000157232
    D(    3) --> V( 1213) amplitude =  0.9908

 Excited state  16: excitation energy (eV) =    1027.5608
 Total energy for state  16:                  -497.56876160 au
    Multiplicity: Singlet
    Trans. Mom.: -0.0005 X   0.0026 Y  -0.0033 Z
    Strength   :     0.0004519755
    D(    3) --> V( 1214) amplitude =  0.9563
    D(    3) --> V( 1216) amplitude = -0.2356

 Excited state  17: excitation energy (eV) =    1028.1061
 Total energy for state  17:                  -497.54872476 au
    Multiplicity: Singlet
    Trans. Mom.: -0.0010 X  -0.0099 Y   0.0118 Z
    Strength   :     0.0059736207
    D(    3) --> V( 1214) amplitude =  0.2670
    D(    3) --> V( 1216) amplitude =  0.8449

 Excited state  18: excitation energy (eV) =    1029.2099
 Total energy for state  18:                  -497.50815796 au
    Multiplicity: Singlet
    Trans. Mom.:  0.0003 X   0.0013 Y  -0.0014 Z
    Strength   :     0.0000936784
    D(    3) --> V( 1215) amplitude =  0.9786

 Excited state  19: excitation energy (eV) =    1029.4071
 Total energy for state  19:                  -497.50091314 au
    Multiplicity: Singlet
    Trans. Mom.: -0.0017 X  -0.0044 Y   0.0033 Z
    Strength   :     0.0008247529
    D(    3) --> V( 1216) amplitude = -0.2505
    D(    3) --> V( 1217) amplitude =  0.9282

 Excited state  20: excitation energy (eV) =    1029.7480
 Total energy for state  20:                  -497.48838406 au
    Multiplicity: Singlet
    Trans. Mom.: -0.0011 X  -0.0083 Y   0.0079 Z
    Strength   :     0.0033428789
    D(    3) --> V( 1216) amplitude = -0.2756
    D(    3) --> V( 1217) amplitude = -0.2872
    D(    3) --> V( 1218) amplitude =  0.7563
    D(    3) --> V( 1219) amplitude = -0.4438

 Excited state  21: excitation energy (eV) =    1030.5966
 Total energy for state  21:                  -497.45720053 au
    Multiplicity: Singlet
    Trans. Mom.:  0.0009 X   0.0115 Y  -0.0105 Z
    Strength   :     0.0061090188
    D(    3) --> V( 1218) amplitude =  0.5071
    D(    3) --> V( 1219) amplitude =  0.3291
    D(    3) --> V( 1220) amplitude =  0.4737
    D(    3) --> V( 1223) amplitude =  0.4268
    D(    3) --> V( 1226) amplitude = -0.2894

 Excited state  22: excitation energy (eV) =    1030.9209
 Total energy for state  22:                  -497.44528187 au
    Multiplicity: Singlet
    Trans. Mom.:  0.0005 X  -0.0020 Y   0.0015 Z
    Strength   :     0.0001616644
    D(    3) --> V( 1218) amplitude =  0.3248
    D(    3) --> V( 1219) amplitude =  0.7409
    D(    3) --> V( 1220) amplitude = -0.5145

 Excited state  23: excitation energy (eV) =    1031.4101
 Total energy for state  23:                  -497.42730477 au
    Multiplicity: Singlet
    Trans. Mom.: -0.0009 X  -0.0073 Y   0.0071 Z
    Strength   :     0.0026461571
    D(    3) --> V( 1219) amplitude =  0.2627
    D(    3) --> V( 1220) amplitude =  0.7001
    D(    3) --> V( 1222) amplitude = -0.2406
    D(    3) --> V( 1223) amplitude = -0.5469

 Excited state  24: excitation energy (eV) =    1032.2055
 Total energy for state  24:                  -497.39807195 au
    Multiplicity: Singlet
    Trans. Mom.:  0.0001 X   0.0004 Y  -0.0006 Z
    Strength   :     0.0000129808
    D(    3) --> V( 1221) amplitude =  0.9960

 Excited state  25: excitation energy (eV) =    1032.4150
 Total energy for state  25:                  -497.39037238 au
    Multiplicity: Singlet
    Trans. Mom.:  0.0032 X  -0.0016 Y   0.0049 Z
    Strength   :     0.0009321921
    D(    3) --> V( 1222) amplitude = -0.4884
    D(    3) --> V( 1223) amplitude =  0.5757
    D(    3) --> V( 1226) amplitude =  0.5361

 Excited state  26: excitation energy (eV) =    1032.7193
 Total energy for state  26:                  -497.37918958 au
    Multiplicity: Singlet
    Trans. Mom.:  0.0018 X  -0.0036 Y   0.0054 Z
    Strength   :     0.0011536389
    D(    3) --> V( 1222) amplitude =  0.7943
    D(    3) --> V( 1226) amplitude =  0.5211

 Excited state  27: excitation energy (eV) =    1033.4426
 Total energy for state  27:                  -497.35260961 au
    Multiplicity: Singlet
    Trans. Mom.:  0.0001 X  -0.0008 Y   0.0009 Z
    Strength   :     0.0000402169
    D(    3) --> V( 1224) amplitude =  0.9812

 Excited state  28: excitation energy (eV) =    1033.8823
 Total energy for state  28:                  -497.33645321 au
    Multiplicity: Singlet
    Trans. Mom.:  0.0003 X  -0.0004 Y   0.0008 Z
    Strength   :     0.0000208441
    D(    3) --> V( 1225) amplitude =  0.9825

 Excited state  29: excitation energy (eV) =    1034.8941
 Total energy for state  29:                  -497.29926816 au
    Multiplicity: Singlet
    Trans. Mom.:  0.0007 X   0.0002 Y   0.0021 Z
    Strength   :     0.0001306674
    D(    3) --> V( 1226) amplitude = -0.2839
    D(    3) --> V( 1227) amplitude = -0.5305
    D(    3) --> V( 1228) amplitude =  0.7180

 Excited state  30: excitation energy (eV) =    1035.2223
 Total energy for state  30:                  -497.28720676 au
    Multiplicity: Singlet
    Trans. Mom.: -0.0003 X   0.0011 Y  -0.0000 Z
    Strength   :     0.0000317431
    D(    3) --> V( 1227) amplitude =  0.8386
    D(    3) --> V( 1228) amplitude =  0.5113

 Excited state  31: excitation energy (eV) =    1035.6247
 Total energy for state  31:                  -497.27241831 au
    Multiplicity: Singlet
    Trans. Mom.:  0.0030 X   0.0047 Y  -0.0023 Z
    Strength   :     0.0009171237
    D(    3) --> V( 1226) amplitude =  0.3242
    D(    3) --> V( 1228) amplitude =  0.3238
    D(    3) --> V( 1229) amplitude = -0.2809
    D(    3) --> V( 1230) amplitude =  0.6055
    D(    3) --> V( 1231) amplitude = -0.2670
    D(    3) --> V( 1232) amplitude =  0.4212
    D(    3) --> V( 1233) amplitude = -0.2241

 Excited state  32: excitation energy (eV) =    1036.0605
 Total energy for state  32:                  -497.25640482 au
    Multiplicity: Singlet
    Trans. Mom.: -0.0002 X   0.0012 Y  -0.0009 Z
    Strength   :     0.0000581835
    D(    3) --> V( 1229) amplitude =  0.9516

 Excited state  33: excitation energy (eV) =    1036.9195
 Total energy for state  33:                  -497.22483537 au
    Multiplicity: Singlet
    Trans. Mom.:  0.0017 X  -0.0001 Y   0.0018 Z
    Strength   :     0.0001559968
    D(    3) --> V( 1230) amplitude =  0.7068
    D(    3) --> V( 1231) amplitude =  0.3318
    D(    3) --> V( 1232) amplitude = -0.5915

 Excited state  34: excitation energy (eV) =    1037.1557
 Total energy for state  34:                  -497.21615786 au
    Multiplicity: Singlet
    Trans. Mom.: -0.0005 X   0.0009 Y  -0.0006 Z
    Strength   :     0.0000345484
    D(    3) --> V( 1231) amplitude =  0.8875
    D(    3) --> V( 1232) amplitude =  0.4431

 Excited state  35: excitation energy (eV) =    1038.4143
 Total energy for state  35:                  -497.16990272 au
    Multiplicity: Singlet
    Trans. Mom.:  0.0002 X  -0.0004 Y  -0.0004 Z
    Strength   :     0.0000070491
    D(    3) --> V( 1232) amplitude =  0.3158
    D(    3) --> V( 1233) amplitude =  0.9188

 Excited state  36: excitation energy (eV) =    1038.7028
 Total energy for state  36:                  -497.15930302 au
    Multiplicity: Singlet
    Trans. Mom.:  0.0004 X  -0.0003 Y   0.0047 Z
    Strength   :     0.0005658746
    D(    3) --> V( 1235) amplitude =  0.9267

 Excited state  37: excitation energy (eV) =    1040.5790
 Total energy for state  37:                  -497.09035350 au
    Multiplicity: Singlet
    Trans. Mom.: -0.0001 X   0.0009 Y  -0.0013 Z
    Strength   :     0.0000656661
    D(    3) --> V( 1234) amplitude =  0.9648

 Excited state  38: excitation energy (eV) =    1041.5957
 Total energy for state  38:                  -497.05299097 au
    Multiplicity: Singlet
    Trans. Mom.: -0.0036 X   0.0062 Y  -0.0099 Z
    Strength   :     0.0037988877
    D(    3) --> V( 1238) amplitude =  0.9114

 Excited state  39: excitation energy (eV) =    1044.6070
 Total energy for state  39:                  -496.94232511 au
    Multiplicity: Singlet
    Trans. Mom.:  0.0001 X   0.0004 Y  -0.0002 Z
    Strength   :     0.0000059450
    D(    3) --> V( 1236) amplitude =  0.9860

 Excited state  40: excitation energy (eV) =    1044.8779
 Total energy for state  40:                  -496.93237096 au
    Multiplicity: Singlet
    Trans. Mom.:  0.0004 X   0.0004 Y  -0.0008 Z
    Strength   :     0.0000258812
    D(    3) --> V( 1237) amplitude =  0.9969

 Excited state  41: excitation energy (eV) =    1045.2238
 Total energy for state  41:                  -496.91965910 au
    Multiplicity: Singlet
    Trans. Mom.: -0.0002 X   0.0001 Y   0.0004 Z
    Strength   :     0.0000043676
    D(    3) --> V( 1239) amplitude =  0.9945

 Excited state  42: excitation energy (eV) =    1046.1673
 Total energy for state  42:                  -496.88498722 au
    Multiplicity: Singlet
    Trans. Mom.: -0.0002 X  -0.0018 Y   0.0009 Z
    Strength   :     0.0001015105
    D(    3) --> V( 1240) amplitude =  0.9044
    D(    3) --> V( 1242) amplitude =  0.2918

 Excited state  43: excitation energy (eV) =    1046.5943
 Total energy for state  43:                  -496.86929586 au
    Multiplicity: Singlet
    Trans. Mom.:  0.0005 X  -0.0011 Y   0.0012 Z
    Strength   :     0.0000692963
    D(    3) --> V( 1240) amplitude = -0.2671
    D(    3) --> V( 1241) amplitude =  0.8989
    D(    3) --> V( 1242) amplitude =  0.2775

 Excited state  44: excitation energy (eV) =    1046.6745
 Total energy for state  44:                  -496.86634675 au
    Multiplicity: Singlet
    Trans. Mom.: -0.0012 X  -0.0011 Y   0.0017 Z
    Strength   :     0.0001468677
    D(    3) --> V( 1240) amplitude = -0.2849
    D(    3) --> V( 1241) amplitude = -0.3771
    D(    3) --> V( 1242) amplitude =  0.7981
    D(    3) --> V( 1245) amplitude =  0.2181

 Excited state  45: excitation energy (eV) =    1047.1266
 Total energy for state  45:                  -496.84973440 au
    Multiplicity: Singlet
    Trans. Mom.:  0.0012 X  -0.0006 Y  -0.0002 Z
    Strength   :     0.0000480332
    D(    3) --> V( 1243) amplitude =  0.9736

 Excited state  46: excitation energy (eV) =    1047.2186
 Total energy for state  46:                  -496.84635212 au
    Multiplicity: Singlet
    Trans. Mom.: -0.0008 X  -0.0021 Y   0.0037 Z
    Strength   :     0.0004852488
    D(    3) --> V( 1242) amplitude = -0.3984
    D(    3) --> V( 1245) amplitude =  0.7380
    D(    3) --> V( 1247) amplitude = -0.2412
    D(    3) --> V( 1261) amplitude =  0.2832

 Excited state  47: excitation energy (eV) =    1047.6457
 Total energy for state  47:                  -496.83065513 au
    Multiplicity: Singlet
    Trans. Mom.:  0.0011 X   0.0002 Y  -0.0013 Z
    Strength   :     0.0000765217
    D(    3) --> V( 1244) amplitude =  0.9194

                    Orbital Energies (a.u.)
 --------------------------------------------------------------

 Alpha MOs
 -- Occupied --
-19.2193 -19.1449 -19.1354 -19.1338 -19.1187 -19.1168 -19.1125  -1.1059
 -1.0393  -1.0280  -1.0152  -1.0042  -0.9945  -0.9944  -0.6177  -0.5867
 -0.5483  -0.5375  -0.5291  -0.5273  -0.5102  -0.4800  -0.4370  -0.4211
 -0.4047  -0.3952  -0.3812  -0.3771  -0.3681  -0.3445  -0.3315  -0.3256
 -0.3102  -0.3050  -0.3031

                    Cartesian Multipole Moments
 -----------------------------------------------------------------
    Charge (ESU x 10^10)
                 0.0000
    Dipole Moment (Debye)
         X       1.9000      Y       1.0408      Z      -6.8985
       Tot       7.2307
    Quadrupole Moments (Debye-Ang)
        XX     -51.5064     XY       0.4937     YY     -62.8505
        XZ       6.6771     YZ     -15.1438     ZZ     -38.4741

 Total job time:  168057.22s(wall), 332500.97s(cpu)
        *  Thank you very much for using Q-Chem.  Have a nice day.  *
