 Q-Chem 6.2 (devel), Q-Chem, Inc., Pleasanton, CA (2024)
 Q-Chem 6.2.2 for Intel X86 EM64T Linux

User input:
--------------------------------------------------------------
$molecule
0 1
O 0.08630 -0.64999 0.87854
H 0.71740 0.00811 0.75554
H -0.68750 -0.09319 0.81254
O 1.63690 1.77401 0.72554
H 1.99410 2.52971 1.16654
H 2.39814 1.36611 0.31254
O -0.81910 -3.08271 -0.06246
H -0.30970 -2.22523 0.02254
H -0.18620 -3.58058 -0.58946
O -1.07970 1.86331 -1.48046
H -0.66610 0.99221 -1.57046
H -0.47320 2.51711 -1.88046
$end

$rem
method                    b3lyp
basis                     cc-pv5z
mem_total                 48000
mem_static                8000
thresh                    12
scf_convergence           8
xc_grid                   000075000302
max_scf_cycles            2000
symmetry                  false
sym_ignore                true
print_orbitals true
$end
gui                       2
molden_format true
--------------------------------------------------------------

             Standard Nuclear Orientation (Angstroms)
    I     Atom           X                Y                Z
 ----------------------------------------------------------------
    1      O       0.0863000000    -0.6499900000     0.8785400000
    2      H       0.7174000000     0.0081100000     0.7555400000
    3      H      -0.6875000000    -0.0931900000     0.8125400000
    4      O       1.6369000000     1.7740100000     0.7255400000
    5      H       1.9941000000     2.5297100000     1.1665400000
    6      H       2.3981400000     1.3661100000     0.3125400000
    7      O      -0.8191000000    -3.0827100000    -0.0624600000
    8      H      -0.3097000000    -2.2252300000     0.0225400000
    9      H      -0.1862000000    -3.5805800000    -0.5894600000
   10      O      -1.0797000000     1.8633100000    -1.4804600000
   11      H      -0.6661000000     0.9922100000    -1.5704600000
   12      H      -0.4732000000     2.5171100000    -1.8804600000
 ----------------------------------------------------------------

   11    -305.8980967179      3.77e-09  Convergence criterion met
 Total energy =  -305.89809672

                    Orbital Energies (a.u.)
 --------------------------------------------------------------

 Alpha MOs
 -- Occupied --
-19.1691 -19.1362 -19.1348 -19.0948  -1.0633  -1.0403  -1.0146  -0.9745
 -0.5820  -0.5421  -0.5385  -0.4904  -0.4480  -0.4125  -0.3950  -0.3685
 -0.3627  -0.3312  -0.3225  -0.2842

          Ground-State Mulliken Net Atomic Charges

     Atom                 Charge (a.u.)
  ----------------------------------------
      1 O                    -0.692633
      2 H                     0.352337
      3 H                     0.353683
      4 O                    -0.565401
      5 H                     0.280750
      6 H                     0.300462
      7 O                    -0.609221
      8 H                     0.338214
      9 H                     0.242217
     10 O                    -0.599520
     11 H                     0.307933
     12 H                     0.291179
  ----------------------------------------
  Sum of atomic charges =     0.000000

                    Cartesian Multipole Moments
 -----------------------------------------------------------------
    Charge (ESU x 10^10)
                -0.0000
    Dipole Moment (Debye)
         X       5.4197      Y       3.8904      Z      -1.2659
       Tot       6.7905
    Quadrupole Moments (Debye-Ang)
        XX     -23.4170     XY       2.1101     YY     -27.9015
        XZ      -1.7168     YZ       5.0823     ZZ     -26.0988

 Total job time:  909.64s(wall), 28636.07s(cpu)
        *  Thank you very much for using Q-Chem.  Have a nice day.  *
