 Q-Chem 6.2 (devel), Q-Chem, Inc., Pleasanton, CA (2024)
 Q-Chem 6.2.2 for Intel X86 EM64T Linux

User input:
--------------------------------------------------------------
$molecule
0 1
O 0.15259 0.62040 0.72270
H 0.92389 0.87610 0.12570
H -0.23161 1.44810 1.00970
O -3.17551 2.37240 0.11370
H -2.43441 2.51760 -0.47230
H -3.93847 2.28180 -0.46430
O 1.82049 -2.37640 -0.36930
H 1.01989 -2.36140 0.12770
H 2.16489 -1.48140 -0.47430
O 2.33659 1.05170 -1.20530
H 1.99309 1.96600 -1.35130
H 2.04739 0.49790 -1.92830
O -1.10661 -1.82740 0.79370
H -0.70881 -0.90090 0.95870
H -1.27341 -2.31540 1.58770
$end

$rem
method                    b3lyp
basis                     cc-pv5z
mem_total                 48000
mem_static                8000
thresh                    12
scf_convergence           8
xc_grid                   000075000302
max_scf_cycles            2000
symmetry                  false
sym_ignore                true
print_orbitals true
$end
gui                       2
molden_format true
--------------------------------------------------------------

             Standard Nuclear Orientation (Angstroms)
    I     Atom           X                Y                Z
 ----------------------------------------------------------------
    1      O       0.1525900000     0.6204000000     0.7227000000
    2      H       0.9238900000     0.8761000000     0.1257000000
    3      H      -0.2316100000     1.4481000000     1.0097000000
    4      O      -3.1755100000     2.3724000000     0.1137000000
    5      H      -2.4344100000     2.5176000000    -0.4723000000
    6      H      -3.9384700000     2.2818000000    -0.4643000000
    7      O       1.8204900000    -2.3764000000    -0.3693000000
    8      H       1.0198900000    -2.3614000000     0.1277000000
    9      H       2.1648900000    -1.4814000000    -0.4743000000
   10      O       2.3365900000     1.0517000000    -1.2053000000
   11      H       1.9930900000     1.9660000000    -1.3513000000
   12      H       2.0473900000     0.4979000000    -1.9283000000
   13      O      -1.1066100000    -1.8274000000     0.7937000000
   14      H      -0.7088100000    -0.9009000000     0.9587000000
   15      H      -1.2734100000    -2.3154000000     1.5877000000
 ----------------------------------------------------------------

   12    -382.3785904985      1.54e-09  Convergence criterion met
 Total energy =  -382.37859050

                    Orbital Energies (a.u.)
 --------------------------------------------------------------

 Alpha MOs
 -- Occupied --
-19.1837 -19.1521 -19.1416 -19.1021 -19.1008  -1.0645  -1.0309  -1.0288
 -0.9907  -0.9774  -0.5915  -0.5532  -0.5491  -0.5277  -0.5219  -0.4417
 -0.4255  -0.4068  -0.3727  -0.3631  -0.3487  -0.3427  -0.3309  -0.2969
 -0.2943

          Ground-State Mulliken Net Atomic Charges

     Atom                 Charge (a.u.)
  ----------------------------------------
      1 O                    -0.647437
      2 H                     0.326801
      3 H                     0.306751
      4 O                    -0.549727
      5 H                     0.269276
      6 H                     0.279532
      7 O                    -0.696275
      8 H                     0.355350
      9 H                     0.321399
     10 O                    -0.653484
     11 H                     0.329074
     12 H                     0.363817
     13 O                    -0.742630
     14 H                     0.423362
     15 H                     0.314191
  ----------------------------------------
  Sum of atomic charges =     0.000000

                    Cartesian Multipole Moments
 -----------------------------------------------------------------
    Charge (ESU x 10^10)
                -0.0000
    Dipole Moment (Debye)
         X      -0.4696      Y       5.4570      Z      -1.9300
       Tot       5.8072
    Quadrupole Moments (Debye-Ang)
        XX     -37.3097     XY       6.1569     YY     -35.5474
        XZ       1.4943     YZ     -10.3771     ZZ     -26.9751

 Total job time:  2169.61s(wall), 68200.43s(cpu)
        *  Thank you very much for using Q-Chem.  Have a nice day.  *
