 Q-Chem 6.2 (devel), Q-Chem, Inc., Pleasanton, CA (2024)
 Q-Chem 6.2.2 for Intel X86 EM64T Linux

User input:
--------------------------------------------------------------
$molecule
read
$end

$rem
method                    b3lyp
basis                     cc-pv5z
mem_total                 63000
mem_static                8000
thresh                    12
scf_convergence           8
xc_grid                   000075000302
max_scf_cycles            2000
symmetry                  false
sym_ignore                true
scf_guess                 read
mom_start                 1
cis_n_roots               150
cis_triplets              false
rpa                       false
trnss                     true
trtype                    2
n_sol                     69
nto_pairs                 2
gui                       2
print_orbitals            true
state_analysis            true
$end

$solute
3 701 702 703 704 705 706 707 708 709 710 711 712 713 714 715 716 717 718 719 720 721 722 723 724 725 726 727 728 729 730 731 732 733 734 735 736 737 738 739 740 741 742 743 744 745 746 747 748 749 750 751 752 753 754 755 756 757 758 759 760 761 762 763 764 765 766 767 768
$end
--------------------------------------------------------------

             Standard Nuclear Orientation (Angstroms)
    I     Atom           X                Y                Z
 ----------------------------------------------------------------
    1      O       0.0863000000    -0.6499900000     0.8785400000
    2      H       0.7174000000     0.0081100000     0.7555400000
    3      H      -0.6875000000    -0.0931900000     0.8125400000
    4      O       1.6369000000     1.7740100000     0.7255400000
    5      H       1.9941000000     2.5297100000     1.1665400000
    6      H       2.3981400000     1.3661100000     0.3125400000
    7      O      -0.8191000000    -3.0827100000    -0.0624600000
    8      H      -0.3097000000    -2.2252300000     0.0225400000
    9      H      -0.1862000000    -3.5805800000    -0.5894600000
   10      O      -1.0797000000     1.8633100000    -1.4804600000
   11      H      -0.6661000000     0.9922100000    -1.5704600000
   12      H      -0.4732000000     2.5171100000    -1.8804600000
 ----------------------------------------------------------------

    2    -305.8980967179      4.88e-09  Convergence criterion met
 Total energy =  -305.89809672

         TDDFT/TDA Excitation Energies
 ---------------------------------------------------

 Excited state   1: excitation energy (eV) =    1015.7196
 Total energy for state   1:                  -268.57108986 au
    Multiplicity: Singlet
    Trans. Mom.:  0.0174 X   0.0214 Y  -0.0025 Z
    Strength   :     0.0190466409
    D(    3) --> V(  681) amplitude = -0.5409
    D(    3) --> V(  682) amplitude =  0.5544
    D(    3) --> V(  685) amplitude = -0.5351
    D(    3) --> V(  687) amplitude =  0.2351

 Excited state   2: excitation energy (eV) =    1017.4445
 Total energy for state   2:                  -268.50770252 au
    Multiplicity: Singlet
    Trans. Mom.:  0.0102 X   0.0067 Y  -0.0023 Z
    Strength   :     0.0038531418
    D(    3) --> V(  681) amplitude =  0.7487
    D(    3) --> V(  685) amplitude = -0.5740

 Excited state   3: excitation energy (eV) =    1018.0521
 Total energy for state   3:                  -268.48537382 au
    Multiplicity: Singlet
    Trans. Mom.: -0.0070 X  -0.0020 Y   0.0006 Z
    Strength   :     0.0013311586
    D(    3) --> V(  681) amplitude =  0.3499
    D(    3) --> V(  682) amplitude =  0.8001
    D(    3) --> V(  685) amplitude =  0.4310

 Excited state   4: excitation energy (eV) =    1018.6537
 Total energy for state   4:                  -268.46326272 au
    Multiplicity: Singlet
    Trans. Mom.:  0.0013 X   0.0002 Y   0.0001 Z
    Strength   :     0.0000433866
    D(    3) --> V(  683) amplitude =  0.9760

 Excited state   5: excitation energy (eV) =    1018.9155
 Total energy for state   5:                  -268.45364450 au
    Multiplicity: Singlet
    Trans. Mom.:  0.0019 X   0.0011 Y  -0.0001 Z
    Strength   :     0.0001183893
    D(    3) --> V(  684) amplitude =  0.9876

 Excited state   6: excitation energy (eV) =    1020.3886
 Total energy for state   6:                  -268.39950736 au
    Multiplicity: Singlet
    Trans. Mom.: -0.0005 X   0.0085 Y  -0.0011 Z
    Strength   :     0.0018473327
    D(    3) --> V(  686) amplitude =  0.9316
    D(    3) --> V(  692) amplitude = -0.2525

 Excited state   7: excitation energy (eV) =    1020.7764
 Total energy for state   7:                  -268.38525746 au
    Multiplicity: Singlet
    Trans. Mom.:  0.0042 X   0.0037 Y   0.0002 Z
    Strength   :     0.0007963993
    D(    3) --> V(  688) amplitude =  0.2911
    D(    3) --> V(  689) amplitude = -0.5610
    D(    3) --> V(  693) amplitude =  0.7152

 Excited state   8: excitation energy (eV) =    1021.3907
 Total energy for state   8:                  -268.36268100 au
    Multiplicity: Singlet
    Trans. Mom.:  0.0062 X  -0.0055 Y   0.0004 Z
    Strength   :     0.0017206487
    D(    3) --> V(  685) amplitude =  0.3448
    D(    3) --> V(  687) amplitude =  0.8559
    D(    3) --> V(  692) amplitude =  0.2470

 Excited state   9: excitation energy (eV) =    1022.1001
 Total energy for state   9:                  -268.33660984 au
    Multiplicity: Singlet
    Trans. Mom.:  0.0036 X  -0.0171 Y   0.0025 Z
    Strength   :     0.0078449556
    D(    3) --> V(  687) amplitude = -0.3638
    D(    3) --> V(  688) amplitude = -0.5327
    D(    3) --> V(  689) amplitude = -0.3433
    D(    3) --> V(  692) amplitude =  0.6247

 Excited state  10: excitation energy (eV) =    1022.7347
 Total energy for state  10:                  -268.31329096 au
    Multiplicity: Singlet
    Trans. Mom.:  0.0016 X  -0.0145 Y   0.0018 Z
    Strength   :     0.0054016024
    D(    3) --> V(  688) amplitude =  0.7473
    D(    3) --> V(  692) amplitude =  0.5560
    D(    3) --> V(  693) amplitude = -0.2490

 Excited state  11: excitation energy (eV) =    1023.5998
 Total energy for state  11:                  -268.28149913 au
    Multiplicity: Singlet
    Trans. Mom.:  0.0012 X  -0.0010 Y   0.0008 Z
    Strength   :     0.0000781780
    D(    3) --> V(  689) amplitude =  0.5492
    D(    3) --> V(  690) amplitude =  0.3417
    D(    3) --> V(  691) amplitude =  0.5537
    D(    3) --> V(  692) amplitude =  0.3021
    D(    3) --> V(  693) amplitude =  0.2956

 Excited state  12: excitation energy (eV) =    1023.7209
 Total energy for state  12:                  -268.27704938 au
    Multiplicity: Singlet
    Trans. Mom.:  0.0018 X   0.0046 Y   0.0003 Z
    Strength   :     0.0006146661
    D(    3) --> V(  689) amplitude = -0.3294
    D(    3) --> V(  690) amplitude =  0.7964
    D(    3) --> V(  693) amplitude = -0.4124

 Excited state  13: excitation energy (eV) =    1023.8079
 Total energy for state  13:                  -268.27385112 au
    Multiplicity: Singlet
    Trans. Mom.: -0.0001 X   0.0071 Y   0.0008 Z
    Strength   :     0.0012926452
    D(    3) --> V(  689) amplitude = -0.2912
    D(    3) --> V(  690) amplitude = -0.4500
    D(    3) --> V(  691) amplitude =  0.7333
    D(    3) --> V(  693) amplitude = -0.3093

 Excited state  14: excitation energy (eV) =    1025.1288
 Total energy for state  14:                  -268.22530895 au
    Multiplicity: Singlet
    Trans. Mom.:  0.0059 X   0.0041 Y  -0.0016 Z
    Strength   :     0.0013553130
    D(    3) --> V(  695) amplitude = -0.4748
    D(    3) --> V(  696) amplitude =  0.7491
    D(    3) --> V(  697) amplitude = -0.3749

 Excited state  15: excitation energy (eV) =    1027.4183
 Total energy for state  15:                  -268.14117055 au
    Multiplicity: Singlet
    Trans. Mom.: -0.0002 X  -0.0016 Y   0.0000 Z
    Strength   :     0.0000623007
    D(    3) --> V(  694) amplitude =  0.9840

 Excited state  16: excitation energy (eV) =    1028.8549
 Total energy for state  16:                  -268.08837643 au
    Multiplicity: Singlet
    Trans. Mom.:  0.0046 X   0.0018 Y  -0.0002 Z
    Strength   :     0.0006164004
    D(    3) --> V(  695) amplitude =  0.7506
    D(    3) --> V(  696) amplitude =  0.5487
    D(    3) --> V(  697) amplitude =  0.2360

 Excited state  17: excitation energy (eV) =    1029.3053
 Total energy for state  17:                  -268.07182318 au
    Multiplicity: Singlet
    Trans. Mom.:  0.0045 X   0.0059 Y   0.0001 Z
    Strength   :     0.0013796699
    D(    3) --> V(  695) amplitude = -0.4307
    D(    3) --> V(  697) amplitude =  0.7331
    D(    3) --> V(  700) amplitude = -0.3517
    D(    3) --> V(  701) amplitude =  0.2618

 Excited state  18: excitation energy (eV) =    1031.6075
 Total energy for state  18:                  -267.98721875 au
    Multiplicity: Singlet
    Trans. Mom.: -0.0114 X  -0.0081 Y   0.0023 Z
    Strength   :     0.0051160758
    D(    3) --> V(  696) amplitude =  0.2376
    D(    3) --> V(  697) amplitude =  0.4696
    D(    3) --> V(  700) amplitude =  0.6861
    D(    3) --> V(  701) amplitude = -0.3779
    D(    3) --> V(  702) amplitude =  0.2219

 Excited state  19: excitation energy (eV) =    1031.7804
 Total energy for state  19:                  -267.98086692 au
    Multiplicity: Singlet
    Trans. Mom.: -0.0010 X  -0.0010 Y   0.0003 Z
    Strength   :     0.0000539893
    D(    3) --> V(  698) amplitude =  0.9909

 Excited state  20: excitation energy (eV) =    1033.0858
 Total energy for state  20:                  -267.93289317 au
    Multiplicity: Singlet
    Trans. Mom.: -0.0009 X  -0.0011 Y   0.0004 Z
    Strength   :     0.0000504404
    D(    3) --> V(  699) amplitude =  0.9834

 Excited state  21: excitation energy (eV) =    1034.2529
 Total energy for state  21:                  -267.89000346 au
    Multiplicity: Singlet
    Trans. Mom.:  0.0007 X   0.0040 Y   0.0008 Z
    Strength   :     0.0004400523
    D(    3) --> V(  700) amplitude =  0.5402
    D(    3) --> V(  701) amplitude =  0.7841

 Excited state  22: excitation energy (eV) =    1035.3627
 Total energy for state  22:                  -267.84921860 au
    Multiplicity: Singlet
    Trans. Mom.: -0.0085 X  -0.0043 Y  -0.0010 Z
    Strength   :     0.0023292303
    D(    3) --> V(  701) amplitude =  0.2226
    D(    3) --> V(  704) amplitude =  0.9335
    D(    3) --> V(  705) amplitude = -0.2245

 Excited state  23: excitation energy (eV) =    1035.4467
 Total energy for state  23:                  -267.84613406 au
    Multiplicity: Singlet
    Trans. Mom.: -0.0001 X   0.0001 Y   0.0007 Z
    Strength   :     0.0000129633
    D(    3) --> V(  701) amplitude =  0.2809
    D(    3) --> V(  702) amplitude =  0.9007
    D(    3) --> V(  705) amplitude =  0.2435

 Excited state  24: excitation energy (eV) =    1037.0611
 Total energy for state  24:                  -267.78680374 au
    Multiplicity: Singlet
    Trans. Mom.: -0.0061 X  -0.0026 Y   0.0005 Z
    Strength   :     0.0011402221
    D(    3) --> V(  703) amplitude =  0.8997
    D(    3) --> V(  706) amplitude =  0.3292

 Excited state  25: excitation energy (eV) =    1037.7429
 Total energy for state  25:                  -267.76174831 au
    Multiplicity: Singlet
    Trans. Mom.: -0.0076 X  -0.0028 Y   0.0022 Z
    Strength   :     0.0017882321
    D(    3) --> V(  704) amplitude =  0.2557
    D(    3) --> V(  705) amplitude =  0.9080

 Excited state  26: excitation energy (eV) =    1039.1038
 Total energy for state  26:                  -267.71173804 au
    Multiplicity: Singlet
    Trans. Mom.: -0.0102 X  -0.0068 Y   0.0009 Z
    Strength   :     0.0038472126
    D(    3) --> V(  703) amplitude = -0.3744
    D(    3) --> V(  706) amplitude =  0.9155

 Excited state  27: excitation energy (eV) =    1044.3281
 Total energy for state  27:                  -267.51974643 au
    Multiplicity: Singlet
    Trans. Mom.:  0.0002 X  -0.0001 Y   0.0000 Z
    Strength   :     0.0000009554
    D(    3) --> V(  707) amplitude =  0.9987

 Excited state  28: excitation energy (eV) =    1045.1104
 Total energy for state  28:                  -267.49099896 au
    Multiplicity: Singlet
    Trans. Mom.: -0.0001 X  -0.0003 Y   0.0002 Z
    Strength   :     0.0000035757
    D(    3) --> V(  708) amplitude =  0.9993

 Excited state  29: excitation energy (eV) =    1045.7511
 Total energy for state  29:                  -267.46745381 au
    Multiplicity: Singlet
    Trans. Mom.: -0.0006 X  -0.0009 Y   0.0003 Z
    Strength   :     0.0000323450
    D(    3) --> V(  709) amplitude =  0.9983

 Excited state  30: excitation energy (eV) =    1046.0037
 Total energy for state  30:                  -267.45817098 au
    Multiplicity: Singlet
    Trans. Mom.:  0.0002 X  -0.0007 Y  -0.0007 Z
    Strength   :     0.0000270223
    D(    3) --> V(  712) amplitude =  0.9751

 Excited state  31: excitation energy (eV) =    1046.2298
 Total energy for state  31:                  -267.44986170 au
    Multiplicity: Singlet
    Trans. Mom.: -0.0000 X   0.0006 Y  -0.0001 Z
    Strength   :     0.0000108122
    D(    3) --> V(  710) amplitude =  0.9970

 Excited state  32: excitation energy (eV) =    1046.3080
 Total energy for state  32:                  -267.44698655 au
    Multiplicity: Singlet
    Trans. Mom.: -0.0002 X  -0.0002 Y  -0.0001 Z
    Strength   :     0.0000021349
    D(    3) --> V(  711) amplitude =  0.9874

 Excited state  33: excitation energy (eV) =    1046.9755
 Total energy for state  33:                  -267.42245743 au
    Multiplicity: Singlet
    Trans. Mom.:  0.0004 X   0.0003 Y  -0.0003 Z
    Strength   :     0.0000090842
    D(    3) --> V(  713) amplitude =  0.9985

 Excited state  34: excitation energy (eV) =    1048.0936
 Total energy for state  34:                  -267.38136660 au
    Multiplicity: Singlet
    Trans. Mom.: -0.0000 X   0.0001 Y  -0.0003 Z
    Strength   :     0.0000028636
    D(    3) --> V(  714) amplitude =  0.9918

 Excited state  35: excitation energy (eV) =    1049.1286
 Total energy for state  35:                  -267.34333089 au
    Multiplicity: Singlet
    Trans. Mom.:  0.0002 X  -0.0002 Y  -0.0015 Z
    Strength   :     0.0000606515
    D(    3) --> V(  715) amplitude =  0.9663

 Excited state  36: excitation energy (eV) =    1049.8024
 Total energy for state  36:                  -267.31856829 au
    Multiplicity: Singlet
    Trans. Mom.:  0.0010 X   0.0016 Y  -0.0042 Z
    Strength   :     0.0005490505
    D(    3) --> V(  716) amplitude =  0.8034
    D(    3) --> V(  719) amplitude = -0.3110
    D(    3) --> V(  720) amplitude =  0.3581

 Excited state  37: excitation energy (eV) =    1050.2777
 Total energy for state  37:                  -267.30110391 au
    Multiplicity: Singlet
    Trans. Mom.: -0.0011 X  -0.0008 Y   0.0056 Z
    Strength   :     0.0008591823
    D(    3) --> V(  716) amplitude =  0.5864
    D(    3) --> V(  719) amplitude =  0.4251
    D(    3) --> V(  720) amplitude = -0.5244
    D(    3) --> V(  722) amplitude =  0.2670

 Excited state  38: excitation energy (eV) =    1051.4901
 Total energy for state  38:                  -267.25654701 au
    Multiplicity: Singlet
    Trans. Mom.: -0.0024 X  -0.0033 Y  -0.0017 Z
    Strength   :     0.0004953600
    D(    3) --> V(  717) amplitude = -0.4544
    D(    3) --> V(  718) amplitude =  0.7554
    D(    3) --> V(  722) amplitude = -0.4242

 Excited state  39: excitation energy (eV) =    1051.8504
 Total energy for state  39:                  -267.24330904 au
    Multiplicity: Singlet
    Trans. Mom.: -0.0001 X  -0.0004 Y  -0.0002 Z
    Strength   :     0.0000068688
    D(    3) --> V(  717) amplitude =  0.8667
    D(    3) --> V(  718) amplitude =  0.4941

 Excited state  40: excitation energy (eV) =    1052.3368
 Total energy for state  40:                  -267.22543181 au
    Multiplicity: Singlet
    Trans. Mom.: -0.0008 X   0.0003 Y   0.0028 Z
    Strength   :     0.0002140121
    D(    3) --> V(  718) amplitude =  0.3458
    D(    3) --> V(  720) amplitude =  0.2753
    D(    3) --> V(  722) amplitude =  0.7932
    D(    3) --> V(  723) amplitude =  0.2232
    D(    3) --> V(  724) amplitude = -0.2197

 Excited state  41: excitation energy (eV) =    1053.9122
 Total energy for state  41:                  -267.16753788 au
    Multiplicity: Singlet
    Trans. Mom.: -0.0010 X  -0.0026 Y  -0.0001 Z
    Strength   :     0.0001987783
    D(    3) --> V(  719) amplitude =  0.6899
    D(    3) --> V(  720) amplitude =  0.6060
    D(    3) --> V(  723) amplitude = -0.2882

 Excited state  42: excitation energy (eV) =    1055.1582
 Total energy for state  42:                  -267.12174919 au
    Multiplicity: Singlet
    Trans. Mom.:  0.0012 X   0.0014 Y  -0.0036 Z
    Strength   :     0.0004261765
    D(    3) --> V(  719) amplitude =  0.3977
    D(    3) --> V(  721) amplitude = -0.3244
    D(    3) --> V(  723) amplitude =  0.6540
    D(    3) --> V(  724) amplitude = -0.4197
    D(    3) --> V(  726) amplitude =  0.2485

 Excited state  43: excitation energy (eV) =    1055.2555
 Total energy for state  43:                  -267.11817055 au
    Multiplicity: Singlet
    Trans. Mom.:  0.0003 X   0.0004 Y  -0.0013 Z
    Strength   :     0.0000484744
    D(    3) --> V(  721) amplitude =  0.9374
    D(    3) --> V(  723) amplitude =  0.2328

 Excited state  44: excitation energy (eV) =    1057.8834
 Total energy for state  44:                  -267.02159852 au
    Multiplicity: Singlet
    Trans. Mom.:  0.0002 X  -0.0023 Y  -0.0099 Z
    Strength   :     0.0026951432
    D(    3) --> V(  724) amplitude = -0.3305
    D(    3) --> V(  725) amplitude =  0.6832
    D(    3) --> V(  727) amplitude =  0.5857

 Excited state  45: excitation energy (eV) =    1059.7750
 Total energy for state  45:                  -266.95208222 au
    Multiplicity: Singlet
    Trans. Mom.: -0.0005 X  -0.0032 Y  -0.0013 Z
    Strength   :     0.0003202667
    D(    3) --> V(  720) amplitude =  0.2365
    D(    3) --> V(  723) amplitude = -0.3330
    D(    3) --> V(  725) amplitude = -0.4286
    D(    3) --> V(  726) amplitude =  0.6509
    D(    3) --> V(  727) amplitude =  0.4226

 Excited state  46: excitation energy (eV) =    1059.9233
 Total energy for state  46:                  -266.94663407 au
    Multiplicity: Singlet
    Trans. Mom.: -0.0007 X  -0.0026 Y  -0.0036 Z
    Strength   :     0.0005312417
    D(    3) --> V(  723) amplitude =  0.4611
    D(    3) --> V(  724) amplitude =  0.7625
    D(    3) --> V(  727) amplitude =  0.3566

 Excited state  47: excitation energy (eV) =    1062.8722
 Total energy for state  47:                  -266.83826242 au
    Multiplicity: Singlet
    Trans. Mom.:  0.0056 X   0.0057 Y   0.0027 Z
    Strength   :     0.0018495503

                    Orbital Energies (a.u.)
 --------------------------------------------------------------

 Alpha MOs
 -- Occupied --
-19.1691 -19.1362 -19.1348 -19.0948  -1.0633  -1.0403  -1.0146  -0.9745
 -0.5820  -0.5421  -0.5385  -0.4904  -0.4480  -0.4125  -0.3950  -0.3685
 -0.3627  -0.3312  -0.3225  -0.2842

                    Cartesian Multipole Moments
 -----------------------------------------------------------------
    Charge (ESU x 10^10)
                 0.0000
    Dipole Moment (Debye)
         X       5.4197      Y       3.8904      Z      -1.2659
       Tot       6.7905
    Quadrupole Moments (Debye-Ang)
        XX     -23.4170     XY       2.1101     YY     -27.9015
        XZ      -1.7168     YZ       5.0823     ZZ     -26.0988

 Total job time:  5089.27s(wall), 38147.63s(cpu)
        *  Thank you very much for using Q-Chem.  Have a nice day.  *
