 Q-Chem 6.2 (devel), Q-Chem, Inc., Pleasanton, CA (2024)
 Q-Chem 6.2.2 for Intel X86 EM64T Linux

User input:
--------------------------------------------------------------
$molecule
read
$end

$rem
method                    b3lyp
basis                     cc-pv5z
mem_total                 63000
mem_static                8000
thresh                    12
scf_convergence           8
xc_grid                   000075000302
max_scf_cycles            2000
symmetry                  false
sym_ignore                true
scf_guess                 read
mom_start                 1
cis_n_roots               100
cis_triplets              false
rpa                       false
trnss                     true
trtype                    2
n_sol                     83
nto_pairs                 2
gui                       2
print_orbitals            true
state_analysis            true
$end

$solute
4 1063 1064 1065 1066 1067 1068 1069 1070 1071 1072 1073 1074 1075 1076 1077 1078 1079 1080 1081 1082 1083 1084 1085 1086 1087 1088 1089 1090 1091 1092 1093 1094 1095 1096 1097 1098 1099 1100 1101 1102 1103 1104 1105 1106 1107 1108 1109 1110 1111 1112 1113 1114 1115 1116 1117 1118 1119 1120 1121 1122 1123 1124 1125 1126 1127 1128 1129 1130 1131 1132 1133 1134 1135 1136 1137 1138 1139 1140 1141 1142 1143 1144
$end
--------------------------------------------------------------

             Standard Nuclear Orientation (Angstroms)
    I     Atom           X                Y                Z
 ----------------------------------------------------------------
    1      O      -0.5443400000     0.1504400000     0.8074000000
    2      H      -1.4389400000     0.4432400000     0.8584000000
    3      H      -0.5001400000    -0.7862600000     0.7654000000
    4      O       1.3491600000     2.5933400000     0.7844000000
    5      H       1.1971600000     1.6388400000     0.9244000000
    6      H       2.1171600000     2.8921400000     1.2554000000
    7      O      -0.6073400000    -0.1717600000    -2.3726000000
    8      H      -0.1853400000     0.4853400000    -1.8596000000
    9      H      -1.5157400000    -0.1705600000    -2.0526000000
   10      O       0.1554600000    -2.2779600000    -0.7286000000
   11      H      -0.3993400000    -3.0349600000    -0.6396000000
   12      H      -0.0702400000    -1.7605600000    -1.5246000000
   13      O       2.9041600000    -2.0044600000    -0.0486000000
   14      H       3.1351600000    -2.7499600000    -0.7296000000
   15      H       1.8981600000    -2.0725600000    -0.0696000000
   16      O      -3.1796400000     1.7743400000     1.5964000000
   17      H      -2.2592400000     1.9979400000     1.7924000000
   18      H      -3.2077400000     2.1028400000     0.6704000000
 ----------------------------------------------------------------

    2    -458.8569977400      1.83e-09  Convergence criterion met
 Total energy =  -458.85699774

         TDDFT/TDA Excitation Energies
 ---------------------------------------------------

 Excited state   1: excitation energy (eV) =    1018.1640
 Total energy for state   1:                  -421.44015962 au
    Multiplicity: Singlet
    Trans. Mom.: -0.0045 X  -0.0032 Y  -0.0004 Z
    Strength   :     0.0007681878
    D(    4) --> V( 1036) amplitude =  0.9707

 Excited state   2: excitation energy (eV) =    1021.8340
 Total energy for state   2:                  -421.30528991 au
    Multiplicity: Singlet
    Trans. Mom.: -0.0003 X   0.0007 Y   0.0001 Z
    Strength   :     0.0000137744
    D(    4) --> V( 1033) amplitude =  0.9937

 Excited state   3: excitation energy (eV) =    1022.2625
 Total energy for state   3:                  -421.28954242 au
    Multiplicity: Singlet
    Trans. Mom.: -0.0017 X   0.0014 Y  -0.0002 Z
    Strength   :     0.0001184936
    D(    4) --> V( 1034) amplitude =  0.9855

 Excited state   4: excitation energy (eV) =    1022.5483
 Total energy for state   4:                  -421.27903969 au
    Multiplicity: Singlet
    Trans. Mom.:  0.0054 X  -0.0008 Y  -0.0005 Z
    Strength   :     0.0007572604
    D(    4) --> V( 1035) amplitude =  0.9929

 Excited state   5: excitation energy (eV) =    1023.3299
 Total energy for state   5:                  -421.25031819 au
    Multiplicity: Singlet
    Trans. Mom.: -0.0005 X  -0.0007 Y  -0.0002 Z
    Strength   :     0.0000183526
    D(    4) --> V( 1037) amplitude =  0.9954

 Excited state   6: excitation energy (eV) =    1024.1284
 Total energy for state   6:                  -421.22097283 au
    Multiplicity: Singlet
    Trans. Mom.:  0.0022 X  -0.0009 Y  -0.0001 Z
    Strength   :     0.0001478741
    D(    4) --> V( 1038) amplitude =  0.8929
    D(    4) --> V( 1039) amplitude =  0.4297

 Excited state   7: excitation energy (eV) =    1024.3983
 Total energy for state   7:                  -421.21105417 au
    Multiplicity: Singlet
    Trans. Mom.:  0.0002 X  -0.0006 Y  -0.0001 Z
    Strength   :     0.0000109000
    D(    4) --> V( 1038) amplitude = -0.4335
    D(    4) --> V( 1039) amplitude =  0.8946

 Excited state   8: excitation energy (eV) =    1025.2674
 Total energy for state   8:                  -421.17911517 au
    Multiplicity: Singlet
    Trans. Mom.:  0.0000 X   0.0008 Y   0.0000 Z
    Strength   :     0.0000157775
    D(    4) --> V( 1040) amplitude =  0.9939

 Excited state   9: excitation energy (eV) =    1026.9122
 Total energy for state   9:                  -421.11866968 au
    Multiplicity: Singlet
    Trans. Mom.: -0.0021 X   0.0017 Y   0.0001 Z
    Strength   :     0.0001823904
    D(    4) --> V( 1041) amplitude =  0.2477
    D(    4) --> V( 1042) amplitude =  0.9665

 Excited state  10: excitation energy (eV) =    1026.9998
 Total energy for state  10:                  -421.11545073 au
    Multiplicity: Singlet
    Trans. Mom.: -0.0015 X   0.0001 Y   0.0002 Z
    Strength   :     0.0000561095
    D(    4) --> V( 1041) amplitude =  0.4481
    D(    4) --> V( 1043) amplitude =  0.8887

 Excited state  11: excitation energy (eV) =    1027.0482
 Total energy for state  11:                  -421.11367116 au
    Multiplicity: Singlet
    Trans. Mom.:  0.0003 X  -0.0001 Y  -0.0002 Z
    Strength   :     0.0000031165
    D(    4) --> V( 1041) amplitude =  0.8568
    D(    4) --> V( 1042) amplitude = -0.2449
    D(    4) --> V( 1043) amplitude = -0.4489

 Excited state  12: excitation energy (eV) =    1028.7516
 Total energy for state  12:                  -421.05107400 au
    Multiplicity: Singlet
    Trans. Mom.: -0.0006 X   0.0024 Y  -0.0000 Z
    Strength   :     0.0001553912
    D(    4) --> V( 1044) amplitude =  0.9957

 Excited state  13: excitation energy (eV) =    1028.8698
 Total energy for state  13:                  -421.04672954 au
    Multiplicity: Singlet
    Trans. Mom.: -0.0012 X   0.0018 Y  -0.0002 Z
    Strength   :     0.0001223732
    D(    4) --> V( 1045) amplitude =  0.9933

 Excited state  14: excitation energy (eV) =    1030.0355
 Total energy for state  14:                  -421.00389035 au
    Multiplicity: Singlet
    Trans. Mom.: -0.0047 X   0.0068 Y   0.0010 Z
    Strength   :     0.0017558531
    D(    4) --> V( 1046) amplitude =  0.9763

 Excited state  15: excitation energy (eV) =    1030.8112
 Total energy for state  15:                  -420.97538445 au
    Multiplicity: Singlet
    Trans. Mom.:  0.0161 X  -0.0225 Y  -0.0020 Z
    Strength   :     0.0194155936
    D(    4) --> V( 1047) amplitude = -0.2683
    D(    4) --> V( 1049) amplitude =  0.2920
    D(    4) --> V( 1051) amplitude =  0.8737

 Excited state  16: excitation energy (eV) =    1030.9487
 Total energy for state  16:                  -420.97033063 au
    Multiplicity: Singlet
    Trans. Mom.:  0.0045 X  -0.0059 Y  -0.0007 Z
    Strength   :     0.0014062244
    D(    4) --> V( 1047) amplitude =  0.9627
    D(    4) --> V( 1051) amplitude =  0.2421

 Excited state  17: excitation energy (eV) =    1032.4918
 Total energy for state  17:                  -420.91362374 au
    Multiplicity: Singlet
    Trans. Mom.:  0.0005 X   0.0003 Y   0.0006 Z
    Strength   :     0.0000167572
    D(    4) --> V( 1048) amplitude =  0.9987

 Excited state  18: excitation energy (eV) =    1034.4263
 Total energy for state  18:                  -420.84253089 au
    Multiplicity: Singlet
    Trans. Mom.:  0.0000 X   0.0006 Y  -0.0002 Z
    Strength   :     0.0000111020
    D(    4) --> V( 1049) amplitude =  0.9442
    D(    4) --> V( 1051) amplitude = -0.3047

 Excited state  19: excitation energy (eV) =    1034.5175
 Total energy for state  19:                  -420.83917923 au
    Multiplicity: Singlet
    Trans. Mom.: -0.0001 X  -0.0002 Y   0.0004 Z
    Strength   :     0.0000041313
    D(    4) --> V( 1050) amplitude =  0.9895

 Excited state  20: excitation energy (eV) =    1035.5149
 Total energy for state  20:                  -420.80252734 au
    Multiplicity: Singlet
    Trans. Mom.: -0.0008 X  -0.0016 Y  -0.0002 Z
    Strength   :     0.0000834415
    D(    4) --> V( 1052) amplitude =  0.4530
    D(    4) --> V( 1053) amplitude =  0.8471

 Excited state  21: excitation energy (eV) =    1035.6314
 Total energy for state  21:                  -420.79824560 au
    Multiplicity: Singlet
    Trans. Mom.: -0.0017 X  -0.0007 Y   0.0001 Z
    Strength   :     0.0000812008
    D(    4) --> V( 1052) amplitude =  0.7279
    D(    4) --> V( 1053) amplitude = -0.5099
    D(    4) --> V( 1054) amplitude =  0.3940

 Excited state  22: excitation energy (eV) =    1035.7525
 Total energy for state  22:                  -420.79379634 au
    Multiplicity: Singlet
    Trans. Mom.: -0.0015 X  -0.0024 Y   0.0000 Z
    Strength   :     0.0002003224
    D(    4) --> V( 1052) amplitude = -0.4844
    D(    4) --> V( 1054) amplitude =  0.8546

 Excited state  23: excitation energy (eV) =    1036.7753
 Total energy for state  23:                  -420.75620796 au
    Multiplicity: Singlet
    Trans. Mom.: -0.0043 X  -0.0029 Y  -0.0004 Z
    Strength   :     0.0006985900
    D(    4) --> V( 1054) amplitude = -0.2560
    D(    4) --> V( 1055) amplitude =  0.4649
    D(    4) --> V( 1059) amplitude =  0.7962

 Excited state  24: excitation energy (eV) =    1037.2050
 Total energy for state  24:                  -420.74041722 au
    Multiplicity: Singlet
    Trans. Mom.:  0.0017 X   0.0017 Y   0.0005 Z
    Strength   :     0.0001561078
    D(    4) --> V( 1055) amplitude =  0.8811
    D(    4) --> V( 1059) amplitude = -0.4247

 Excited state  25: excitation energy (eV) =    1037.7933
 Total energy for state  25:                  -420.71879845 au
    Multiplicity: Singlet
    Trans. Mom.: -0.0000 X   0.0001 Y   0.0002 Z
    Strength   :     0.0000012921
    D(    4) --> V( 1061) amplitude =  0.9901

 Excited state  26: excitation energy (eV) =    1038.0921
 Total energy for state  26:                  -420.70781720 au
    Multiplicity: Singlet
    Trans. Mom.: -0.0008 X  -0.0005 Y  -0.0000 Z
    Strength   :     0.0000228209
    D(    4) --> V( 1056) amplitude =  0.9800

 Excited state  27: excitation energy (eV) =    1039.7737
 Total energy for state  27:                  -420.64602032 au
    Multiplicity: Singlet
    Trans. Mom.:  0.0003 X   0.0004 Y  -0.0002 Z
    Strength   :     0.0000078684
    D(    4) --> V( 1057) amplitude =  0.9643
    D(    4) --> V( 1059) amplitude = -0.2433

 Excited state  28: excitation energy (eV) =    1040.2818
 Total energy for state  28:                  -420.62734556 au
    Multiplicity: Singlet
    Trans. Mom.: -0.0000 X   0.0001 Y   0.0000 Z
    Strength   :     0.0000002264
    D(    4) --> V( 1058) amplitude =  0.9976

 Excited state  29: excitation energy (eV) =    1042.1320
 Total energy for state  29:                  -420.55935301 au
    Multiplicity: Singlet
    Trans. Mom.: -0.0001 X   0.0001 Y  -0.0001 Z
    Strength   :     0.0000007159
    D(    4) --> V( 1060) amplitude =  0.9978

 Excited state  30: excitation energy (eV) =    1045.2277
 Total energy for state  30:                  -420.44558649 au
    Multiplicity: Singlet
    Trans. Mom.:  0.0002 X  -0.0001 Y  -0.0013 Z
    Strength   :     0.0000424170
    D(    4) --> V( 1074) amplitude =  0.7972
    D(    4) --> V( 1075) amplitude =  0.4944

 Excited state  31: excitation energy (eV) =    1045.9642
 Total energy for state  31:                  -420.41852114 au
    Multiplicity: Singlet
    Trans. Mom.:  0.0004 X  -0.0003 Y  -0.0004 Z
    Strength   :     0.0000126521
    D(    4) --> V( 1062) amplitude =  0.7154
    D(    4) --> V( 1063) amplitude =  0.6810

 Excited state  32: excitation energy (eV) =    1046.0245
 Total energy for state  32:                  -420.41630759 au
    Multiplicity: Singlet
    Trans. Mom.: -0.0000 X   0.0001 Y   0.0003 Z
    Strength   :     0.0000024560
    D(    4) --> V( 1062) amplitude = -0.6945
    D(    4) --> V( 1063) amplitude =  0.7112

 Excited state  33: excitation energy (eV) =    1046.1727
 Total energy for state  33:                  -420.41086075 au
    Multiplicity: Singlet
    Trans. Mom.: -0.0002 X   0.0007 Y  -0.0011 Z
    Strength   :     0.0000425455
    D(    4) --> V( 1064) amplitude =  0.9752

 Excited state  34: excitation energy (eV) =    1046.7536
 Total energy for state  34:                  -420.38951282 au
    Multiplicity: Singlet
    Trans. Mom.: -0.0006 X   0.0005 Y   0.0002 Z
    Strength   :     0.0000148438
    D(    4) --> V( 1065) amplitude =  0.8813
    D(    4) --> V( 1066) amplitude =  0.4503

 Excited state  35: excitation energy (eV) =    1046.9235
 Total energy for state  35:                  -420.38327018 au
    Multiplicity: Singlet
    Trans. Mom.: -0.0001 X   0.0007 Y   0.0002 Z
    Strength   :     0.0000135147
    D(    4) --> V( 1065) amplitude = -0.4430
    D(    4) --> V( 1066) amplitude =  0.8865

 Excited state  36: excitation energy (eV) =    1047.1077
 Total energy for state  36:                  -420.37649892 au
    Multiplicity: Singlet
    Trans. Mom.: -0.0003 X   0.0005 Y  -0.0010 Z
    Strength   :     0.0000333223
    D(    4) --> V( 1067) amplitude =  0.7068
    D(    4) --> V( 1068) amplitude = -0.6611
    D(    4) --> V( 1079) amplitude = -0.2141

 Excited state  37: excitation energy (eV) =    1047.1450
 Total energy for state  37:                  -420.37512917 au
    Multiplicity: Singlet
    Trans. Mom.:  0.0008 X   0.0002 Y   0.0003 Z
    Strength   :     0.0000225284
    D(    4) --> V( 1067) amplitude =  0.6906
    D(    4) --> V( 1068) amplitude =  0.7147

 Excited state  38: excitation energy (eV) =    1047.7140
 Total energy for state  38:                  -420.35421814 au
    Multiplicity: Singlet
    Trans. Mom.: -0.0014 X  -0.0016 Y   0.0047 Z
    Strength   :     0.0006689086
    D(    4) --> V( 1068) amplitude = -0.2131
    D(    4) --> V( 1079) amplitude =  0.8938

 Excited state  39: excitation energy (eV) =    1048.5601
 Total energy for state  39:                  -420.32312413 au
    Multiplicity: Singlet
    Trans. Mom.: -0.0007 X  -0.0003 Y  -0.0002 Z
    Strength   :     0.0000175728
    D(    4) --> V( 1069) amplitude =  0.5213
    D(    4) --> V( 1070) amplitude =  0.8072

 Excited state  40: excitation energy (eV) =    1048.6706
 Total energy for state  40:                  -420.31906349 au
    Multiplicity: Singlet
    Trans. Mom.: -0.0001 X  -0.0000 Y   0.0006 Z
    Strength   :     0.0000091890
    D(    4) --> V( 1069) amplitude =  0.8319
    D(    4) --> V( 1070) amplitude = -0.5361

 Excited state  41: excitation energy (eV) =    1049.3416
 Total energy for state  41:                  -420.29440507 au
    Multiplicity: Singlet
    Trans. Mom.:  0.0002 X   0.0001 Y   0.0013 Z
    Strength   :     0.0000413440
    D(    4) --> V( 1071) amplitude =  0.9703

 Excited state  42: excitation energy (eV) =    1049.7427
 Total energy for state  42:                  -420.27966346 au
    Multiplicity: Singlet
    Trans. Mom.: -0.0013 X  -0.0009 Y   0.0003 Z
    Strength   :     0.0000647347
    D(    4) --> V( 1072) amplitude =  0.9553

 Excited state  43: excitation energy (eV) =    1050.4193
 Total energy for state  43:                  -420.25479969 au
    Multiplicity: Singlet
    Trans. Mom.: -0.0010 X   0.0012 Y  -0.0006 Z
    Strength   :     0.0000767198
    D(    4) --> V( 1076) amplitude = -0.2548
    D(    4) --> V( 1082) amplitude =  0.6540
    D(    4) --> V( 1084) amplitude = -0.4989

 Excited state  44: excitation energy (eV) =    1050.6514
 Total energy for state  44:                  -420.24627179 au
    Multiplicity: Singlet
    Trans. Mom.:  0.0055 X   0.0040 Y   0.0007 Z
    Strength   :     0.0011882132
    D(    4) --> V( 1073) amplitude =  0.4410
    D(    4) --> V( 1075) amplitude =  0.2501
    D(    4) --> V( 1076) amplitude = -0.2221
    D(    4) --> V( 1077) amplitude = -0.2492
    D(    4) --> V( 1084) amplitude =  0.2287
    D(    4) --> V( 1085) amplitude =  0.6722

 Excited state  45: excitation energy (eV) =    1051.2081
 Total energy for state  45:                  -420.22581091 au
    Multiplicity: Singlet
    Trans. Mom.: -0.0022 X  -0.0009 Y   0.0003 Z
    Strength   :     0.0001461238
    D(    4) --> V( 1073) amplitude =  0.8779
    D(    4) --> V( 1085) amplitude = -0.2740

 Excited state  46: excitation energy (eV) =    1051.8694
 Total energy for state  46:                  -420.20151118 au
    Multiplicity: Singlet
    Trans. Mom.: -0.0010 X  -0.0007 Y   0.0004 Z
    Strength   :     0.0000436171
    D(    4) --> V( 1074) amplitude = -0.5620
    D(    4) --> V( 1075) amplitude =  0.7385
    D(    4) --> V( 1076) amplitude =  0.2362

 Excited state  47: excitation energy (eV) =    1052.4801
 Total energy for state  47:                  -420.17906818 au
    Multiplicity: Singlet
    Trans. Mom.:  0.0003 X   0.0005 Y  -0.0001 Z
    Strength   :     0.0000090927
    D(    4) --> V( 1076) amplitude =  0.6875
    D(    4) --> V( 1077) amplitude = -0.5492
    D(    4) --> V( 1078) amplitude =  0.4379

 Excited state  48: excitation energy (eV) =    1052.6030
 Total energy for state  48:                  -420.17455056 au
    Multiplicity: Singlet
    Trans. Mom.:  0.0016 X   0.0006 Y   0.0011 Z
    Strength   :     0.0001040470
    D(    4) --> V( 1077) amplitude =  0.6438
    D(    4) --> V( 1078) amplitude =  0.6877

 Excited state  49: excitation energy (eV) =    1052.8085
 Total energy for state  49:                  -420.16699724 au
    Multiplicity: Singlet
    Trans. Mom.: -0.0015 X  -0.0019 Y   0.0007 Z
    Strength   :     0.0001638523
    D(    4) --> V( 1075) amplitude =  0.2410
    D(    4) --> V( 1076) amplitude = -0.5094
    D(    4) --> V( 1077) amplitude = -0.3662
    D(    4) --> V( 1078) amplitude =  0.5230
    D(    4) --> V( 1085) amplitude = -0.4173

 Excited state  50: excitation energy (eV) =    1053.9241
 Total energy for state  50:                  -420.12600283 au
    Multiplicity: Singlet
    Trans. Mom.: -0.0005 X  -0.0002 Y   0.0007 Z
    Strength   :     0.0000187238
    D(    4) --> V( 1080) amplitude =  0.9801

 Excited state  51: excitation energy (eV) =    1055.1591
 Total energy for state  51:                  -420.08061591 au

                    Orbital Energies (a.u.)
 --------------------------------------------------------------

 Alpha MOs
 -- Occupied --
-19.1609 -19.1604 -19.1516 -19.1392 -19.1145 -19.1071  -1.0586  -1.0429
 -1.0402  -1.0345  -0.9981  -0.9640  -0.5776  -0.5721  -0.5706  -0.5415
 -0.5338  -0.4841  -0.4369  -0.4303  -0.4200  -0.4088  -0.3722  -0.3692
 -0.3635  -0.3467  -0.3406  -0.3344  -0.3070  -0.2881

                    Cartesian Multipole Moments
 -----------------------------------------------------------------
    Charge (ESU x 10^10)
                -0.0000
    Dipole Moment (Debye)
         X      -3.2049      Y      -1.6011      Z      -1.3992
       Tot       3.8461
    Quadrupole Moments (Debye-Ang)
        XX     -46.2110     XY       4.9576     YY     -33.1081
        XZ       6.3374     YZ       3.4634     ZZ     -44.7090

 Total job time:  34891.22s(wall), 135525.16s(cpu)
        *  Thank you very much for using Q-Chem.  Have a nice day.  *
