 Q-Chem 6.2 (devel), Q-Chem, Inc., Pleasanton, CA (2024)
 Q-Chem 6.2.2 for Intel X86 EM64T Linux

User input:
--------------------------------------------------------------
$molecule
read
$end

$rem
method                    b3lyp
basis                     cc-pv5z
mem_total                 63000
mem_static                8000
thresh                    12
scf_convergence           8
xc_grid                   000075000302
max_scf_cycles            2000
symmetry                  false
sym_ignore                true
scf_guess                 read
mom_start                 1
cis_n_roots               100
cis_triplets              false
rpa                       false
trnss                     true
trtype                    2
n_sol                     83
nto_pairs                 2
gui                       2
print_orbitals            true
state_analysis            true
$end

$solute
4 1063 1064 1065 1066 1067 1068 1069 1070 1071 1072 1073 1074 1075 1076 1077 1078 1079 1080 1081 1082 1083 1084 1085 1086 1087 1088 1089 1090 1091 1092 1093 1094 1095 1096 1097 1098 1099 1100 1101 1102 1103 1104 1105 1106 1107 1108 1109 1110 1111 1112 1113 1114 1115 1116 1117 1118 1119 1120 1121 1122 1123 1124 1125 1126 1127 1128 1129 1130 1131 1132 1133 1134 1135 1136 1137 1138 1139 1140 1141 1142 1143 1144
$end
--------------------------------------------------------------

             Standard Nuclear Orientation (Angstroms)
    I     Atom           X                Y                Z
 ----------------------------------------------------------------
    1      O       9.0019000000    -0.1083900000     1.0267100000
    2      H       9.1659000000    -0.9063900000     0.4877100000
    3      H       8.1679000000     0.2116100000     0.6197100000
    4      O     -15.3831000000    -2.0999900000    -0.6202900000
    5      H     -15.8021000000    -2.9438000000    -0.7262900000
    6      H     -14.5111000000    -2.2966700000    -0.2002900000
    7      O     -14.3271000000     1.1120100000     1.5607100000
    8      H     -15.1961000000     0.7325100000     1.5117100000
    9      H     -13.5911000000     0.5688100000     1.3287100000
   10      O       8.0639000000     2.6348100000    -1.4822900000
   11      H       7.5400000000     1.8343100000    -1.3332900000
   12      H       8.9869000000     2.3544100000    -1.4732900000
   13      O       6.5009000000    -2.0648400000     0.3077100000
   14      H       6.3950000000    -1.0744900000     0.2787100000
   15      H       6.5178000000    -2.3091900000    -0.6432900000
   16      O       6.1994000000     0.6544100000    -0.6692900000
   17      H       5.6838000000     1.4035100000    -0.3382900000
   18      H       5.7558000000     0.3939100000    -1.4682900000
 ----------------------------------------------------------------

    2    -458.8433208342      1.68e-09  Convergence criterion met
 Total energy =  -458.84332083

         TDDFT/TDA Excitation Energies
 ---------------------------------------------------

 Excited state   1: excitation energy (eV) =    1015.5947
 Total energy for state   1:                  -421.52090295 au
    Multiplicity: Singlet
    Trans. Mom.:  0.0019 X   0.0014 Y  -0.0000 Z
    Strength   :     0.0001436989
    D(    4) --> V( 1035) amplitude =  0.9936

 Excited state   2: excitation energy (eV) =    1016.1125
 Total energy for state   2:                  -421.50187586 au
    Multiplicity: Singlet
    Trans. Mom.: -0.0069 X  -0.0043 Y  -0.0095 Z
    Strength   :     0.0039231162
    D(    4) --> V( 1036) amplitude =  0.9313
    D(    4) --> V( 1037) amplitude =  0.2519

 Excited state   3: excitation energy (eV) =    1019.4799
 Total energy for state   3:                  -421.37812721 au
    Multiplicity: Singlet
    Trans. Mom.: -0.0087 X   0.0120 Y   0.0024 Z
    Strength   :     0.0056291734
    D(    4) --> V( 1033) amplitude =  0.4052
    D(    4) --> V( 1038) amplitude =  0.3266
    D(    4) --> V( 1039) amplitude =  0.6829
    D(    4) --> V( 1040) amplitude =  0.4897

 Excited state   4: excitation energy (eV) =    1020.3374
 Total energy for state   4:                  -421.34661248 au
    Multiplicity: Singlet
    Trans. Mom.: -0.0004 X  -0.0020 Y  -0.0012 Z
    Strength   :     0.0001363831
    D(    4) --> V( 1033) amplitude =  0.3571
    D(    4) --> V( 1034) amplitude =  0.8873
    D(    4) --> V( 1036) amplitude =  0.2259

 Excited state   5: excitation energy (eV) =    1020.3908
 Total energy for state   5:                  -421.34465213 au
    Multiplicity: Singlet
    Trans. Mom.:  0.0026 X  -0.0043 Y  -0.0009 Z
    Strength   :     0.0006580160
    D(    4) --> V( 1033) amplitude =  0.8226
    D(    4) --> V( 1034) amplitude = -0.4155
    D(    4) --> V( 1039) amplitude = -0.2889

 Excited state   6: excitation energy (eV) =    1021.9017
 Total energy for state   6:                  -421.28912517 au
    Multiplicity: Singlet
    Trans. Mom.: -0.0008 X   0.0013 Y   0.0005 Z
    Strength   :     0.0000641977
    D(    4) --> V( 1036) amplitude = -0.2529
    D(    4) --> V( 1037) amplitude =  0.9396

 Excited state   7: excitation energy (eV) =    1022.0074
 Total energy for state   7:                  -421.28524111 au
    Multiplicity: Singlet
    Trans. Mom.: -0.0003 X   0.0002 Y   0.0002 Z
    Strength   :     0.0000037539
    D(    4) --> V( 1044) amplitude =  0.9744

 Excited state   8: excitation energy (eV) =    1022.8735
 Total energy for state   8:                  -421.25341275 au
    Multiplicity: Singlet
    Trans. Mom.: -0.0015 X   0.0004 Y  -0.0009 Z
    Strength   :     0.0000832465
    D(    4) --> V( 1038) amplitude =  0.9241
    D(    4) --> V( 1039) amplitude = -0.3193

 Excited state   9: excitation energy (eV) =    1024.2698
 Total energy for state   9:                  -421.20210045 au
    Multiplicity: Singlet
    Trans. Mom.:  0.0001 X   0.0008 Y   0.0009 Z
    Strength   :     0.0000344959
    D(    4) --> V( 1039) amplitude = -0.5694
    D(    4) --> V( 1040) amplitude =  0.8172

 Excited state  10: excitation energy (eV) =    1025.9436
 Total energy for state  10:                  -421.14059010 au
    Multiplicity: Singlet
    Trans. Mom.: -0.0000 X   0.0000 Y   0.0000 Z
    Strength   :     0.0000000000
    D(    4) --> V( 1041) amplitude =  1.0000

 Excited state  11: excitation energy (eV) =    1026.0229
 Total energy for state  11:                  -421.13767608 au
    Multiplicity: Singlet
    Trans. Mom.: -0.0019 X  -0.0013 Y  -0.0026 Z
    Strength   :     0.0002962385
    D(    4) --> V( 1042) amplitude =  0.2186
    D(    4) --> V( 1047) amplitude =  0.9558

 Excited state  12: excitation energy (eV) =    1026.3426
 Total energy for state  12:                  -421.12592650 au
    Multiplicity: Singlet
    Trans. Mom.: -0.0004 X   0.0005 Y   0.0002 Z
    Strength   :     0.0000112295
    D(    4) --> V( 1042) amplitude =  0.9714

 Excited state  13: excitation energy (eV) =    1026.7941
 Total energy for state  13:                  -421.10933513 au
    Multiplicity: Singlet
    Trans. Mom.:  0.0009 X  -0.0006 Y   0.0002 Z
    Strength   :     0.0000309123
    D(    4) --> V( 1043) amplitude =  0.9850

 Excited state  14: excitation energy (eV) =    1029.8654
 Total energy for state  14:                  -420.99646397 au
    Multiplicity: Singlet
    Trans. Mom.:  0.0002 X  -0.0006 Y  -0.0006 Z
    Strength   :     0.0000187952
    D(    4) --> V( 1045) amplitude =  0.9943

 Excited state  15: excitation energy (eV) =    1031.0225
 Total energy for state  15:                  -420.95394149 au
    Multiplicity: Singlet
    Trans. Mom.: -0.0000 X   0.0000 Y   0.0000 Z
    Strength   :     0.0000000000
    D(    4) --> V( 1046) amplitude =  1.0000

 Excited state  16: excitation energy (eV) =    1031.5910
 Total energy for state  16:                  -420.93305191 au
    Multiplicity: Singlet
    Trans. Mom.: -0.0069 X   0.0071 Y   0.0003 Z
    Strength   :     0.0024879424
    D(    4) --> V( 1055) amplitude = -0.4494
    D(    4) --> V( 1056) amplitude =  0.8866

 Excited state  17: excitation energy (eV) =    1032.2421
 Total energy for state  17:                  -420.90912178 au
    Multiplicity: Singlet
    Trans. Mom.:  0.0002 X  -0.0004 Y  -0.0000 Z
    Strength   :     0.0000054369
    D(    4) --> V( 1049) amplitude =  0.9962

 Excited state  18: excitation energy (eV) =    1032.3558
 Total energy for state  18:                  -420.90494629 au
    Multiplicity: Singlet
    Trans. Mom.: -0.0000 X   0.0000 Y  -0.0000 Z
    Strength   :     0.0000000000
    D(    4) --> V( 1048) amplitude =  1.0000

 Excited state  19: excitation energy (eV) =    1033.4347
 Total energy for state  19:                  -420.86529708 au
    Multiplicity: Singlet
    Trans. Mom.: -0.0002 X   0.0000 Y  -0.0000 Z
    Strength   :     0.0000014310
    D(    4) --> V( 1051) amplitude =  0.9896

 Excited state  20: excitation energy (eV) =    1033.6366
 Total energy for state  20:                  -420.85787684 au
    Multiplicity: Singlet
    Trans. Mom.: -0.0000 X  -0.0000 Y  -0.0000 Z
    Strength   :     0.0000000000
    D(    4) --> V( 1050) amplitude =  1.0000

 Excited state  21: excitation energy (eV) =    1033.6409
 Total energy for state  21:                  -420.85771936 au
    Multiplicity: Singlet
    Trans. Mom.:  0.0003 X  -0.0002 Y   0.0001 Z
    Strength   :     0.0000041848
    D(    4) --> V( 1052) amplitude =  0.9858

 Excited state  22: excitation energy (eV) =    1033.7585
 Total energy for state  22:                  -420.85339685 au
    Multiplicity: Singlet
    Trans. Mom.: -0.0004 X   0.0002 Y  -0.0003 Z
    Strength   :     0.0000088533
    D(    4) --> V( 1053) amplitude =  0.9904

 Excited state  23: excitation energy (eV) =    1036.3245
 Total energy for state  23:                  -420.75909755 au
    Multiplicity: Singlet
    Trans. Mom.:  0.0002 X   0.0001 Y   0.0001 Z
    Strength   :     0.0000012090
    D(    4) --> V( 1055) amplitude =  0.8885
    D(    4) --> V( 1056) amplitude =  0.4511

 Excited state  24: excitation energy (eV) =    1037.0197
 Total energy for state  24:                  -420.73355043 au
    Multiplicity: Singlet
    Trans. Mom.: -0.0000 X  -0.0000 Y  -0.0000 Z
    Strength   :     0.0000000000
    D(    4) --> V( 1054) amplitude =  1.0000

 Excited state  25: excitation energy (eV) =    1037.3888
 Total energy for state  25:                  -420.71998556 au
    Multiplicity: Singlet
    Trans. Mom.: -0.0000 X  -0.0001 Y   0.0001 Z
    Strength   :     0.0000007901
    D(    4) --> V( 1057) amplitude =  0.9987

 Excited state  26: excitation energy (eV) =    1037.9546
 Total energy for state  26:                  -420.69919283 au
    Multiplicity: Singlet
    Trans. Mom.: -0.0010 X   0.0000 Y  -0.0003 Z
    Strength   :     0.0000301283
    D(    4) --> V( 1061) amplitude =  0.6719
    D(    4) --> V( 1062) amplitude = -0.5041
    D(    4) --> V( 1063) amplitude = -0.5381

 Excited state  27: excitation energy (eV) =    1038.8370
 Total energy for state  27:                  -420.66676510 au
    Multiplicity: Singlet
    Trans. Mom.: -0.0000 X   0.0000 Y  -0.0000 Z
    Strength   :     0.0000000000
    D(    4) --> V( 1058) amplitude =  1.0000

 Excited state  28: excitation energy (eV) =    1039.8489
 Total energy for state  28:                  -420.62958001 au
    Multiplicity: Singlet
    Trans. Mom.: -0.0031 X  -0.0030 Y   0.0028 Z
    Strength   :     0.0006782794
    D(    4) --> V( 1066) amplitude =  0.2682
    D(    4) --> V( 1067) amplitude =  0.8330
    D(    4) --> V( 1068) amplitude =  0.4388

 Excited state  29: excitation energy (eV) =    1040.0338
 Total energy for state  29:                  -420.62278541 au
    Multiplicity: Singlet
    Trans. Mom.: -0.0009 X  -0.0009 Y   0.0007 Z
    Strength   :     0.0000534970
    D(    4) --> V( 1067) amplitude = -0.4120
    D(    4) --> V( 1068) amplitude =  0.8683

 Excited state  30: excitation energy (eV) =    1040.9497
 Total energy for state  30:                  -420.58912368 au
    Multiplicity: Singlet
    Trans. Mom.:  0.0000 X  -0.0000 Y   0.0000 Z
    Strength   :     0.0000000000
    D(    4) --> V( 1059) amplitude =  1.0000

 Excited state  31: excitation energy (eV) =    1041.5821
 Total energy for state  31:                  -420.56588301 au
    Multiplicity: Singlet
    Trans. Mom.:  0.0005 X   0.0005 Y  -0.0007 Z
    Strength   :     0.0000230936
    D(    4) --> V( 1060) amplitude =  0.9904

 Excited state  32: excitation energy (eV) =    1043.7973
 Total energy for state  32:                  -420.48447599 au
    Multiplicity: Singlet
    Trans. Mom.: -0.0012 X  -0.0011 Y   0.0018 Z
    Strength   :     0.0001505111
    D(    4) --> V( 1061) amplitude =  0.6681
    D(    4) --> V( 1062) amplitude =  0.6928

 Excited state  33: excitation energy (eV) =    1044.1457
 Total energy for state  33:                  -420.47167547 au
    Multiplicity: Singlet
    Trans. Mom.: -0.0012 X  -0.0004 Y   0.0008 Z
    Strength   :     0.0000561716
    D(    4) --> V( 1061) amplitude =  0.2643
    D(    4) --> V( 1062) amplitude = -0.5086
    D(    4) --> V( 1063) amplitude =  0.8066

 Excited state  34: excitation energy (eV) =    1044.8512
 Total energy for state  34:                  -420.44574823 au
    Multiplicity: Singlet
    Trans. Mom.:  0.0000 X   0.0006 Y  -0.0011 Z
    Strength   :     0.0000371986
    D(    4) --> V( 1064) amplitude =  0.9909

 Excited state  35: excitation energy (eV) =    1045.6233
 Total energy for state  35:                  -420.41737274 au
    Multiplicity: Singlet
    Trans. Mom.:  0.0000 X   0.0000 Y  -0.0000 Z
    Strength   :     0.0000000000
    D(    4) --> V( 1065) amplitude =  1.0000

 Excited state  36: excitation energy (eV) =    1046.0760
 Total energy for state  36:                  -420.40073537 au
    Multiplicity: Singlet
    Trans. Mom.:  0.0052 X   0.0053 Y  -0.0064 Z
    Strength   :     0.0024647590
    D(    4) --> V( 1066) amplitude = -0.2797
    D(    4) --> V( 1080) amplitude =  0.7266
    D(    4) --> V( 1081) amplitude =  0.5829

 Excited state  37: excitation energy (eV) =    1046.2369
 Total energy for state  37:                  -420.39482358 au
    Multiplicity: Singlet
    Trans. Mom.:  0.0018 X   0.0016 Y  -0.0017 Z
    Strength   :     0.0002289224
    D(    4) --> V( 1066) amplitude =  0.9075
    D(    4) --> V( 1067) amplitude = -0.3080
    D(    4) --> V( 1080) amplitude =  0.2178

 Excited state  38: excitation energy (eV) =    1047.1583
 Total energy for state  38:                  -420.36096421 au
    Multiplicity: Singlet
    Trans. Mom.: -0.0003 X  -0.0000 Y   0.0000 Z
    Strength   :     0.0000020393
    D(    4) --> V( 1069) amplitude =  0.9804

 Excited state  39: excitation energy (eV) =    1047.2148
 Total energy for state  39:                  -420.35888781 au
    Multiplicity: Singlet
    Trans. Mom.: -0.0009 X   0.0000 Y   0.0002 Z
    Strength   :     0.0000205317
    D(    4) --> V( 1070) amplitude =  0.9706

 Excited state  40: excitation energy (eV) =    1048.0606
 Total energy for state  40:                  -420.32780350 au
    Multiplicity: Singlet
    Trans. Mom.:  0.0011 X  -0.0009 Y   0.0002 Z
    Strength   :     0.0000570352
    D(    4) --> V( 1072) amplitude =  0.9915

 Excited state  41: excitation energy (eV) =    1048.5352
 Total energy for state  41:                  -420.31036232 au
    Multiplicity: Singlet
    Trans. Mom.: -0.0000 X   0.0000 Y   0.0000 Z
    Strength   :     0.0000000000
    D(    4) --> V( 1071) amplitude =  1.0000

 Excited state  42: excitation energy (eV) =    1048.8114
 Total energy for state  42:                  -420.30021440 au
    Multiplicity: Singlet
    Trans. Mom.: -0.0045 X   0.0053 Y   0.0011 Z
    Strength   :     0.0012679844
    D(    4) --> V( 1074) amplitude = -0.5675
    D(    4) --> V( 1084) amplitude =  0.7757

 Excited state  43: excitation energy (eV) =    1049.2332
 Total energy for state  43:                  -420.28471288 au
    Multiplicity: Singlet
    Trans. Mom.: -0.0030 X   0.0034 Y   0.0003 Z
    Strength   :     0.0005367738
    D(    4) --> V( 1074) amplitude =  0.8203
    D(    4) --> V( 1084) amplitude =  0.5242

 Excited state  44: excitation energy (eV) =    1049.4525
 Total energy for state  44:                  -420.27665134 au
    Multiplicity: Singlet
    Trans. Mom.: -0.0000 X  -0.0000 Y  -0.0000 Z
    Strength   :     0.0000000000
    D(    4) --> V( 1073) amplitude =  1.0000

 Excited state  45: excitation energy (eV) =    1049.5140
 Total energy for state  45:                  -420.27439109 au
    Multiplicity: Singlet
    Trans. Mom.:  0.0015 X  -0.0016 Y   0.0002 Z
    Strength   :     0.0001247183
    D(    4) --> V( 1075) amplitude =  0.9793

 Excited state  46: excitation energy (eV) =    1050.4238
 Total energy for state  46:                  -420.24095945 au
    Multiplicity: Singlet
    Trans. Mom.:  0.0000 X  -0.0000 Y  -0.0000 Z
    Strength   :     0.0000000000
    D(    4) --> V( 1076) amplitude =  1.0000

 Excited state  47: excitation energy (eV) =    1050.4591
 Total energy for state  47:                  -420.23966261 au
    Multiplicity: Singlet
    Trans. Mom.: -0.0000 X   0.0000 Y   0.0000 Z
    Strength   :     0.0000000000
    D(    4) --> V( 1077) amplitude =  1.0000

 Excited state  48: excitation energy (eV) =    1050.8574
 Total energy for state  48:                  -420.22502421 au
    Multiplicity: Singlet
    Trans. Mom.: -0.0007 X   0.0005 Y  -0.0004 Z
    Strength   :     0.0000236800
    D(    4) --> V( 1078) amplitude =  0.9926

 Excited state  49: excitation energy (eV) =    1051.6630
 Total energy for state  49:                  -420.19541955 au
    Multiplicity: Singlet
    Trans. Mom.:  0.0004 X  -0.0004 Y  -0.0000 Z
    Strength   :     0.0000074418
    D(    4) --> V( 1079) amplitude =  0.9984

 Excited state  50: excitation energy (eV) =    1052.5154
 Total energy for state  50:                  -420.16409390 au
    Multiplicity: Singlet
    Trans. Mom.:  0.0008 X  -0.0001 Y   0.0001 Z
    Strength   :     0.0000156694
    D(    4) --> V( 1080) amplitude = -0.6225
    D(    4) --> V( 1081) amplitude =  0.7727

 Excited state  51: excitation energy (eV) =    1053.7321
 Total energy for state  51:                  -420.11938146 au
    Multiplicity: Singlet
    Trans. Mom.: -0.0000 X  -0.0000 Y   0.0000 Z
    Strength   :     0.0000000000
    D(    4) --> V( 1082) amplitude =  1.0000

 Excited state  52: excitation energy (eV) =    1054.4208
 Total energy for state  52:                  -420.09407158 au
    Multiplicity: Singlet
    Trans. Mom.: -0.0000 X   0.0000 Y  -0.0000 Z
    Strength   :     0.0000000000
    D(    4) --> V( 1083) amplitude =  1.0000

 Excited state  53: excitation energy (eV) =    1055.8448
 Total energy for state  53:                  -420.04173982 au
    Multiplicity: Singlet
    Trans. Mom.: -0.0003 X   0.0001 Y  -0.0001 Z
    Strength   :     0.0000034651

                    Orbital Energies (a.u.)
 --------------------------------------------------------------

 Alpha MOs
 -- Occupied --
-19.2025 -19.1432 -19.1323 -19.1251 -19.1206 -19.1204  -1.0931  -1.0255
 -1.0112  -1.0064  -1.0056  -1.0015  -0.6078  -0.5617  -0.5462  -0.5349
 -0.5297  -0.5122  -0.4747  -0.4130  -0.4060  -0.3933  -0.3881  -0.3732
 -0.3703  -0.3313  -0.3215  -0.3160  -0.3139  -0.3072

                    Cartesian Multipole Moments
 -----------------------------------------------------------------
    Charge (ESU x 10^10)
                -0.0000
    Dipole Moment (Debye)
         X      -2.2825      Y      -3.7041      Z      -3.4897
       Tot       5.5775
    Quadrupole Moments (Debye-Ang)
        XX     -85.1187     XY      38.5034     YY     -45.3646
        XZ     -25.1044     YZ       5.3843     ZZ     -46.0542

 Total job time:  21239.23s(wall), 81022.27s(cpu)
        *  Thank you very much for using Q-Chem.  Have a nice day.  *
