 Q-Chem 6.2 (devel), Q-Chem, Inc., Pleasanton, CA (2024)
 Q-Chem 6.2.2 for Intel X86 EM64T Linux

User input:
--------------------------------------------------------------
$molecule
0 1
O -0.54434 0.15044 0.80740
H -1.43894 0.44324 0.85840
H -0.50014 -0.78626 0.76540
O 1.34916 2.59334 0.78440
H 1.19716 1.63884 0.92440
H 2.11716 2.89214 1.25540
O -0.60734 -0.17176 -2.37260
H -0.18534 0.48534 -1.85960
H -1.51574 -0.17056 -2.05260
O 0.15546 -2.27796 -0.72860
H -0.39934 -3.03496 -0.63960
H -0.07024 -1.76056 -1.52460
O 2.90416 -2.00446 -0.04860
H 3.13516 -2.74996 -0.72960
H 1.89816 -2.07256 -0.06960
O -3.17964 1.77434 1.59640
H -2.25924 1.99794 1.79240
H -3.20774 2.10284 0.67040
$end

$rem
method                    b3lyp
basis                     cc-pv5z
mem_total                 48000
mem_static                8000
thresh                    12
scf_convergence           8
xc_grid                   000075000302
max_scf_cycles            2000
symmetry                  false
sym_ignore                true
print_orbitals true
$end
gui                       2
molden_format true
--------------------------------------------------------------

             Standard Nuclear Orientation (Angstroms)
    I     Atom           X                Y                Z
 ----------------------------------------------------------------
    1      O      -0.5443400000     0.1504400000     0.8074000000
    2      H      -1.4389400000     0.4432400000     0.8584000000
    3      H      -0.5001400000    -0.7862600000     0.7654000000
    4      O       1.3491600000     2.5933400000     0.7844000000
    5      H       1.1971600000     1.6388400000     0.9244000000
    6      H       2.1171600000     2.8921400000     1.2554000000
    7      O      -0.6073400000    -0.1717600000    -2.3726000000
    8      H      -0.1853400000     0.4853400000    -1.8596000000
    9      H      -1.5157400000    -0.1705600000    -2.0526000000
   10      O       0.1554600000    -2.2779600000    -0.7286000000
   11      H      -0.3993400000    -3.0349600000    -0.6396000000
   12      H      -0.0702400000    -1.7605600000    -1.5246000000
   13      O       2.9041600000    -2.0044600000    -0.0486000000
   14      H       3.1351600000    -2.7499600000    -0.7296000000
   15      H       1.8981600000    -2.0725600000    -0.0696000000
   16      O      -3.1796400000     1.7743400000     1.5964000000
   17      H      -2.2592400000     1.9979400000     1.7924000000
   18      H      -3.2077400000     2.1028400000     0.6704000000
 ----------------------------------------------------------------

   12    -458.8569977400      1.58e-09  Convergence criterion met
 Total energy =  -458.85699774

                    Orbital Energies (a.u.)
 --------------------------------------------------------------

 Alpha MOs
 -- Occupied --
-19.1609 -19.1604 -19.1516 -19.1392 -19.1145 -19.1071  -1.0586  -1.0429
 -1.0402  -1.0345  -0.9981  -0.9640  -0.5776  -0.5721  -0.5706  -0.5415
 -0.5338  -0.4841  -0.4369  -0.4303  -0.4200  -0.4088  -0.3722  -0.3692
 -0.3635  -0.3467  -0.3406  -0.3344  -0.3070  -0.2881

          Ground-State Mulliken Net Atomic Charges

     Atom                 Charge (a.u.)
  ----------------------------------------
      1 O                    -0.731319
      2 H                     0.314145
      3 H                     0.391390
      4 O                    -0.642273
      5 H                     0.346990
      6 H                     0.287659
      7 O                    -0.653965
      8 H                     0.370052
      9 H                     0.321602
     10 O                    -0.750150
     11 H                     0.333895
     12 H                     0.397286
     13 O                    -0.690396
     14 H                     0.275901
     15 H                     0.402945
     16 O                    -0.609748
     17 H                     0.330984
     18 H                     0.305003
  ----------------------------------------
  Sum of atomic charges =     0.000000

                    Cartesian Multipole Moments
 -----------------------------------------------------------------
    Charge (ESU x 10^10)
                -0.0000
    Dipole Moment (Debye)
         X      -3.2049      Y      -1.6011      Z      -1.3992
       Tot       3.8461
    Quadrupole Moments (Debye-Ang)
        XX     -46.2109     XY       4.9576     YY     -33.1081
        XZ       6.3374     YZ       3.4634     ZZ     -44.7090

 Total job time:  3836.94s(wall), 120852.44s(cpu)
        *  Thank you very much for using Q-Chem.  Have a nice day.  *
