 Q-Chem 6.2 (devel), Q-Chem, Inc., Pleasanton, CA (2024)
 Q-Chem 6.2.2 for Intel X86 EM64T Linux

User input:
--------------------------------------------------------------
$molecule
0 1
O 9.00190 -0.10839 1.02671
H 9.16590 -0.90639 0.48771
H 8.16790 0.21161 0.61971
O -15.38310 -2.09999 -0.62029
H -15.80210 -2.94380 -0.72629
H -14.51110 -2.29667 -0.20029
O -14.32710 1.11201 1.56071
H -15.19610 0.73251 1.51171
H -13.59110 0.56881 1.32871
O 8.06390 2.63481 -1.48229
H 7.54000 1.83431 -1.33329
H 8.98690 2.35441 -1.47329
O 6.50090 -2.06484 0.30771
H 6.39500 -1.07449 0.27871
H 6.51780 -2.30919 -0.64329
O 6.19940 0.65441 -0.66929
H 5.68380 1.40351 -0.33829
H 5.75580 0.39391 -1.46829
$end

$rem
method                    b3lyp
basis                     cc-pv5z
mem_total                 48000
mem_static                8000
thresh                    12
scf_convergence           8
xc_grid                   000075000302
max_scf_cycles            2000
symmetry                  false
sym_ignore                true
print_orbitals true
$end
gui                       2
molden_format true
--------------------------------------------------------------

             Standard Nuclear Orientation (Angstroms)
    I     Atom           X                Y                Z
 ----------------------------------------------------------------
    1      O       9.0019000000    -0.1083900000     1.0267100000
    2      H       9.1659000000    -0.9063900000     0.4877100000
    3      H       8.1679000000     0.2116100000     0.6197100000
    4      O     -15.3831000000    -2.0999900000    -0.6202900000
    5      H     -15.8021000000    -2.9438000000    -0.7262900000
    6      H     -14.5111000000    -2.2966700000    -0.2002900000
    7      O     -14.3271000000     1.1120100000     1.5607100000
    8      H     -15.1961000000     0.7325100000     1.5117100000
    9      H     -13.5911000000     0.5688100000     1.3287100000
   10      O       8.0639000000     2.6348100000    -1.4822900000
   11      H       7.5400000000     1.8343100000    -1.3332900000
   12      H       8.9869000000     2.3544100000    -1.4732900000
   13      O       6.5009000000    -2.0648400000     0.3077100000
   14      H       6.3950000000    -1.0744900000     0.2787100000
   15      H       6.5178000000    -2.3091900000    -0.6432900000
   16      O       6.1994000000     0.6544100000    -0.6692900000
   17      H       5.6838000000     1.4035100000    -0.3382900000
   18      H       5.7558000000     0.3939100000    -1.4682900000
 ----------------------------------------------------------------

   12    -458.8433208342      1.23e-09  Convergence criterion met
 Total energy =  -458.84332083

                    Orbital Energies (a.u.)
 --------------------------------------------------------------

 Alpha MOs
 -- Occupied --
-19.2025 -19.1432 -19.1323 -19.1251 -19.1206 -19.1204  -1.0931  -1.0255
 -1.0112  -1.0064  -1.0056  -1.0015  -0.6078  -0.5617  -0.5462  -0.5349
 -0.5297  -0.5122  -0.4747  -0.4130  -0.4060  -0.3933  -0.3881  -0.3732
 -0.3703  -0.3313  -0.3215  -0.3160  -0.3139  -0.3072

          Ground-State Mulliken Net Atomic Charges

     Atom                 Charge (a.u.)
  ----------------------------------------
      1 O                    -0.613435
      2 H                     0.284059
      3 H                     0.322016
      4 O                    -0.557505
      5 H                     0.272836
      6 H                     0.283668
      7 O                    -0.615993
      8 H                     0.316744
      9 H                     0.300250
     10 O                    -0.657708
     11 H                     0.327407
     12 H                     0.306313
     13 O                    -0.644360
     14 H                     0.367792
     15 H                     0.273634
     16 O                    -0.725299
     17 H                     0.392326
     18 H                     0.367254
  ----------------------------------------
  Sum of atomic charges =     0.000000

                    Cartesian Multipole Moments
 -----------------------------------------------------------------
    Charge (ESU x 10^10)
                 0.0000
    Dipole Moment (Debye)
         X      -2.2825      Y      -3.7041      Z      -3.4897
       Tot       5.5775
    Quadrupole Moments (Debye-Ang)
        XX     -85.1187     XY      38.5034     YY     -45.3646
        XZ     -25.1044     YZ       5.3843     ZZ     -46.0542

 Total job time:  2023.24s(wall), 63661.59s(cpu)
        *  Thank you very much for using Q-Chem.  Have a nice day.  *
