 Q-Chem 6.2 (devel), Q-Chem, Inc., Pleasanton, CA (2024)
 Q-Chem 6.2.2 for Intel X86 EM64T Linux

User input:
--------------------------------------------------------------
$molecule
0 1
O -0.15538 -0.17396 -0.05431
H 0.20762 -0.97296 -0.47291
H 0.57462 0.42634 -0.15331
O -0.04638 3.61404 -0.47121
H -0.28738 2.95564 -1.12131
H 0.90962 3.40114 -0.25631
O -2.21638 -3.65066 -0.90051
H -1.43438 -3.17686 -0.89801
H -2.03438 -4.55266 -1.19411
O -2.48938 0.50074 -1.81001
H -2.96238 1.24764 -1.41171
H -1.82738 0.30154 -1.07391
O -0.35738 0.80494 2.40469
H -0.37038 0.02584 1.81069
H -1.12638 0.65924 2.97569
O 2.10562 1.89594 -0.26531
H 2.92662 1.92554 -0.78541
H 2.32162 1.71014 0.68269
O 0.31262 -2.87766 -0.79171
H 0.67862 -3.41176 -1.52291
H 0.42962 -3.56636 -0.12931
O 2.66062 0.12094 1.88969
H 2.91462 -0.35826 1.09669
H 2.03262 -0.33306 2.43269
$end

$rem
method                    b3lyp
basis                     cc-pv5z
mem_total                 48000
mem_static                8000
thresh                    12
scf_convergence           8
xc_grid                   000075000302
max_scf_cycles            2000
symmetry                  false
sym_ignore                true
print_orbitals true
$end
gui                       2
molden_format true
--------------------------------------------------------------

             Standard Nuclear Orientation (Angstroms)
    I     Atom           X                Y                Z
 ----------------------------------------------------------------
    1      O      -0.1553800000    -0.1739600000    -0.0543100000
    2      H       0.2076200000    -0.9729600000    -0.4729100000
    3      H       0.5746200000     0.4263400000    -0.1533100000
    4      O      -0.0463800000     3.6140400000    -0.4712100000
    5      H      -0.2873800000     2.9556400000    -1.1213100000
    6      H       0.9096200000     3.4011400000    -0.2563100000
    7      O      -2.2163800000    -3.6506600000    -0.9005100000
    8      H      -1.4343800000    -3.1768600000    -0.8980100000
    9      H      -2.0343800000    -4.5526600000    -1.1941100000
   10      O      -2.4893800000     0.5007400000    -1.8100100000
   11      H      -2.9623800000     1.2476400000    -1.4117100000
   12      H      -1.8273800000     0.3015400000    -1.0739100000
   13      O      -0.3573800000     0.8049400000     2.4046900000
   14      H      -0.3703800000     0.0258400000     1.8106900000
   15      H      -1.1263800000     0.6592400000     2.9756900000
   16      O       2.1056200000     1.8959400000    -0.2653100000
   17      H       2.9266200000     1.9255400000    -0.7854100000
   18      H       2.3216200000     1.7101400000     0.6826900000
   19      O       0.3126200000    -2.8776600000    -0.7917100000
   20      H       0.6786200000    -3.4117600000    -1.5229100000
   21      H       0.4296200000    -3.5663600000    -0.1293100000
   22      O       2.6606200000     0.1209400000     1.8896900000
   23      H       2.9146200000    -0.3582600000     1.0966900000
   24      H       2.0326200000    -0.3330600000     2.4326900000
 ----------------------------------------------------------------

   12    -611.8031434084      1.81e-09  Convergence criterion met
 Total energy =  -611.80314341

                    Orbital Energies (a.u.)
 --------------------------------------------------------------

 Alpha MOs
 -- Occupied --
-19.2048 -19.1591 -19.1541 -19.1408 -19.1117 -19.1104 -19.0985 -19.0881
 -1.0957  -1.0463  -1.0363  -1.0325  -1.0115  -0.9928  -0.9719  -0.9672
 -0.5856  -0.5837  -0.5664  -0.5537  -0.5441  -0.5138  -0.4910  -0.4883
 -0.4813  -0.4325  -0.4229  -0.4115  -0.4079  -0.3820  -0.3679  -0.3640
 -0.3598  -0.3514  -0.3355  -0.3313  -0.3109  -0.3023  -0.2851  -0.2783

          Ground-State Mulliken Net Atomic Charges

     Atom                 Charge (a.u.)
  ----------------------------------------
      1 O                    -0.757620
      2 H                     0.372094
      3 H                     0.378298
      4 O                    -0.691667
      5 H                     0.307444
      6 H                     0.372133
      7 O                    -0.651827
      8 H                     0.390335
      9 H                     0.254883
     10 O                    -0.665258
     11 H                     0.285367
     12 H                     0.367782
     13 O                    -0.603612
     14 H                     0.325252
     15 H                     0.261443
     16 O                    -0.711707
     17 H                     0.315328
     18 H                     0.406537
     19 O                    -0.658848
     20 H                     0.345616
     21 H                     0.341751
     22 O                    -0.673301
     23 H                     0.328397
     24 H                     0.361178
  ----------------------------------------
  Sum of atomic charges =     0.000000

                    Cartesian Multipole Moments
 -----------------------------------------------------------------
    Charge (ESU x 10^10)
                -0.0000
    Dipole Moment (Debye)
         X       6.6924      Y      -7.4245      Z       0.1409
       Tot       9.9965
    Quadrupole Moments (Debye-Ang)
        XX     -53.6309     XY      -8.1989     YY     -47.3333
        XZ     -13.8251     YZ       1.1419     ZZ     -55.7496

 Total job time:  11561.16s(wall), 363271.74s(cpu)
        *  Thank you very much for using Q-Chem.  Have a nice day.  *
