 Q-Chem 6.2 (devel), Q-Chem, Inc., Pleasanton, CA (2024)
 Q-Chem 6.2.2 for Intel X86 EM64T Linux

User input:
--------------------------------------------------------------
$molecule
read
$end

$rem
method                    b3lyp
basis                     cc-pv5z
mem_total                 63000
mem_static                8000
thresh                    12
scf_convergence           8
xc_grid                   000075000302
max_scf_cycles            2000
symmetry                  false
sym_ignore                true
scf_guess                 read
mom_start                 1
cis_n_roots               200
cis_triplets              false
rpa                       false
trnss                     true
trtype                    2
n_sol                     113
nto_pairs                 2
gui                       2
print_orbitals            true
state_analysis            true
$end

$solute
4 1413 1414 1415 1416 1417 1418 1419 1420 1421 1422 1423 1424 1425 1426 1427 1428 1429 1430 1431 1432 1433 1434 1435 1436 1437 1438 1439 1440 1441 1442 1443 1444 1445 1446 1447 1448 1449 1450 1451 1452 1453 1454 1455 1456 1457 1458 1459 1460 1461 1462 1463 1464 1465 1466 1467 1468 1469 1470 1471 1472 1473 1474 1475 1476 1477 1478 1479 1480 1481 1482 1483 1484 1485 1486 1487 1488 1489 1490 1491 1492 1493 1494 1495 1496 1497 1498 1499 1500 1501 1502 1503 1504 1505 1506 1507 1508 1509 1510 1511 1512 1513 1514 1515 1516 1517 1518 1519 1520 1521 1522 1523 1524
$end
--------------------------------------------------------------

             Standard Nuclear Orientation (Angstroms)
    I     Atom           X                Y                Z
 ----------------------------------------------------------------
    1      O      -0.1553800000    -0.1739600000    -0.0543100000
    2      H       0.2076200000    -0.9729600000    -0.4729100000
    3      H       0.5746200000     0.4263400000    -0.1533100000
    4      O      -0.0463800000     3.6140400000    -0.4712100000
    5      H      -0.2873800000     2.9556400000    -1.1213100000
    6      H       0.9096200000     3.4011400000    -0.2563100000
    7      O      -2.2163800000    -3.6506600000    -0.9005100000
    8      H      -1.4343800000    -3.1768600000    -0.8980100000
    9      H      -2.0343800000    -4.5526600000    -1.1941100000
   10      O      -2.4893800000     0.5007400000    -1.8100100000
   11      H      -2.9623800000     1.2476400000    -1.4117100000
   12      H      -1.8273800000     0.3015400000    -1.0739100000
   13      O      -0.3573800000     0.8049400000     2.4046900000
   14      H      -0.3703800000     0.0258400000     1.8106900000
   15      H      -1.1263800000     0.6592400000     2.9756900000
   16      O       2.1056200000     1.8959400000    -0.2653100000
   17      H       2.9266200000     1.9255400000    -0.7854100000
   18      H       2.3216200000     1.7101400000     0.6826900000
   19      O       0.3126200000    -2.8776600000    -0.7917100000
   20      H       0.6786200000    -3.4117600000    -1.5229100000
   21      H       0.4296200000    -3.5663600000    -0.1293100000
   22      O       2.6606200000     0.1209400000     1.8896900000
   23      H       2.9146200000    -0.3582600000     1.0966900000
   24      H       2.0326200000    -0.3330600000     2.4326900000
 ----------------------------------------------------------------

    2    -611.8031434084      1.35e-09  Convergence criterion met
 Total energy =  -611.80314341

         TDDFT/TDA Excitation Energies
 ---------------------------------------------------

 Excited state   1: excitation energy (eV) =    1019.4151
 Total energy for state   1:                  -574.34032999 au
    Multiplicity: Singlet
    Trans. Mom.:  0.0081 X   0.0033 Y  -0.0038 Z
    Strength   :     0.0022865464
    D(    4) --> V( 1375) amplitude = -0.4123
    D(    4) --> V( 1379) amplitude =  0.6798
    D(    4) --> V( 1381) amplitude =  0.3816
    D(    4) --> V( 1382) amplitude =  0.3034

 Excited state   2: excitation energy (eV) =    1019.8724
 Total energy for state   2:                  -574.32352529 au
    Multiplicity: Singlet
    Trans. Mom.:  0.0031 X   0.0027 Y   0.0032 Z
    Strength   :     0.0006791028
    D(    4) --> V( 1373) amplitude =  0.6516
    D(    4) --> V( 1375) amplitude = -0.2377
    D(    4) --> V( 1378) amplitude = -0.2438
    D(    4) --> V( 1381) amplitude = -0.4705
    D(    4) --> V( 1389) amplitude =  0.3696

 Excited state   3: excitation energy (eV) =    1020.8810
 Total energy for state   3:                  -574.28645772 au
    Multiplicity: Singlet
    Trans. Mom.:  0.0040 X  -0.0008 Y  -0.0025 Z
    Strength   :     0.0005818805
    D(    4) --> V( 1373) amplitude =  0.3113
    D(    4) --> V( 1374) amplitude =  0.3937
    D(    4) --> V( 1375) amplitude =  0.4672
    D(    4) --> V( 1382) amplitude =  0.5132
    D(    4) --> V( 1383) amplitude = -0.2370
    D(    4) --> V( 1390) amplitude = -0.2757

 Excited state   4: excitation energy (eV) =    1021.8914
 Total energy for state   4:                  -574.24932733 au
    Multiplicity: Singlet
    Trans. Mom.: -0.0033 X  -0.0047 Y  -0.0011 Z
    Strength   :     0.0008488316
    D(    4) --> V( 1373) amplitude =  0.5153
    D(    4) --> V( 1374) amplitude = -0.4372
    D(    4) --> V( 1375) amplitude =  0.2539
    D(    4) --> V( 1376) amplitude =  0.4776
    D(    4) --> V( 1378) amplitude =  0.2715
    D(    4) --> V( 1381) amplitude =  0.2650
    D(    4) --> V( 1382) amplitude = -0.2142

 Excited state   5: excitation energy (eV) =    1022.0629
 Total energy for state   5:                  -574.24302473 au
    Multiplicity: Singlet
    Trans. Mom.:  0.0008 X   0.0017 Y   0.0000 Z
    Strength   :     0.0000868201
    D(    4) --> V( 1373) amplitude =  0.3073
    D(    4) --> V( 1374) amplitude =  0.7580
    D(    4) --> V( 1375) amplitude = -0.2309
    D(    4) --> V( 1376) amplitude =  0.2458
    D(    4) --> V( 1382) amplitude = -0.3879

 Excited state   6: excitation energy (eV) =    1022.1640
 Total energy for state   6:                  -574.23930938 au
    Multiplicity: Singlet
    Trans. Mom.:  0.0012 X   0.0022 Y   0.0013 Z
    Strength   :     0.0001964514
    D(    4) --> V( 1373) amplitude = -0.2493
    D(    4) --> V( 1376) amplitude =  0.8206
    D(    4) --> V( 1382) amplitude =  0.3539

 Excited state   7: excitation energy (eV) =    1022.3819
 Total energy for state   7:                  -574.23130000 au
    Multiplicity: Singlet
    Trans. Mom.:  0.0015 X  -0.0007 Y  -0.0002 Z
    Strength   :     0.0000695157
    D(    4) --> V( 1375) amplitude = -0.4950
    D(    4) --> V( 1377) amplitude =  0.7423
    D(    4) --> V( 1378) amplitude =  0.3398
    D(    4) --> V( 1379) amplitude = -0.2666

 Excited state   8: excitation energy (eV) =    1022.4921
 Total energy for state   8:                  -574.22725112 au
    Multiplicity: Singlet
    Trans. Mom.:  0.0039 X   0.0005 Y  -0.0000 Z
    Strength   :     0.0003881118
    D(    4) --> V( 1375) amplitude = -0.2744
    D(    4) --> V( 1377) amplitude = -0.5979
    D(    4) --> V( 1378) amplitude =  0.6651

 Excited state   9: excitation energy (eV) =    1022.7186
 Total energy for state   9:                  -574.21892896 au
    Multiplicity: Singlet
    Trans. Mom.:  0.0009 X   0.0039 Y  -0.0012 Z
    Strength   :     0.0004435255
    D(    4) --> V( 1375) amplitude = -0.2718
    D(    4) --> V( 1378) amplitude = -0.4644
    D(    4) --> V( 1379) amplitude = -0.5146
    D(    4) --> V( 1381) amplitude =  0.5374

 Excited state  10: excitation energy (eV) =    1023.2441
 Total energy for state  10:                  -574.19961794 au
    Multiplicity: Singlet
    Trans. Mom.: -0.0005 X  -0.0025 Y  -0.0011 Z
    Strength   :     0.0001920478
    D(    4) --> V( 1380) amplitude =  0.9675

 Excited state  11: excitation energy (eV) =    1023.8722
 Total energy for state  11:                  -574.17653273 au
    Multiplicity: Singlet
    Trans. Mom.: -0.0027 X   0.0012 Y   0.0015 Z
    Strength   :     0.0002724735
    D(    4) --> V( 1379) amplitude = -0.3295
    D(    4) --> V( 1382) amplitude =  0.2445
    D(    4) --> V( 1383) amplitude =  0.8558

 Excited state  12: excitation energy (eV) =    1024.7706
 Total energy for state  12:                  -574.14351845 au
    Multiplicity: Singlet
    Trans. Mom.:  0.0013 X   0.0023 Y   0.0004 Z
    Strength   :     0.0001731605
    D(    4) --> V( 1384) amplitude =  0.9411

 Excited state  13: excitation energy (eV) =    1024.9637
 Total energy for state  13:                  -574.13642355 au
    Multiplicity: Singlet
    Trans. Mom.: -0.0039 X  -0.0016 Y  -0.0018 Z
    Strength   :     0.0005327361
    D(    4) --> V( 1381) amplitude = -0.3053
    D(    4) --> V( 1385) amplitude =  0.7722
    D(    4) --> V( 1389) amplitude = -0.3852

 Excited state  14: excitation energy (eV) =    1025.2944
 Total energy for state  14:                  -574.12426860 au
    Multiplicity: Singlet
    Trans. Mom.:  0.0066 X   0.0010 Y   0.0016 Z
    Strength   :     0.0011769590
    D(    4) --> V( 1381) amplitude =  0.2649
    D(    4) --> V( 1385) amplitude =  0.5377
    D(    4) --> V( 1386) amplitude = -0.2189
    D(    4) --> V( 1389) amplitude =  0.6067
    D(    4) --> V( 1390) amplitude =  0.3067

 Excited state  15: excitation energy (eV) =    1026.2745
 Total energy for state  15:                  -574.08824984 au
    Multiplicity: Singlet
    Trans. Mom.: -0.0004 X  -0.0076 Y  -0.0036 Z
    Strength   :     0.0017997293
    D(    4) --> V( 1386) amplitude =  0.7813
    D(    4) --> V( 1387) amplitude =  0.3496
    D(    4) --> V( 1390) amplitude =  0.4281

 Excited state  16: excitation energy (eV) =    1026.3514
 Total energy for state  16:                  -574.08542546 au
    Multiplicity: Singlet
    Trans. Mom.: -0.0017 X  -0.0078 Y  -0.0052 Z
    Strength   :     0.0022607095
    D(    4) --> V( 1382) amplitude =  0.2276
    D(    4) --> V( 1386) amplitude = -0.5157
    D(    4) --> V( 1388) amplitude =  0.2606
    D(    4) --> V( 1389) amplitude = -0.3838
    D(    4) --> V( 1390) amplitude =  0.5769
    D(    4) --> V( 1394) amplitude =  0.2169

 Excited state  17: excitation energy (eV) =    1026.6130
 Total energy for state  17:                  -574.07581123 au
    Multiplicity: Singlet
    Trans. Mom.: -0.0012 X   0.0018 Y   0.0016 Z
    Strength   :     0.0001828549
    D(    4) --> V( 1386) amplitude = -0.2203
    D(    4) --> V( 1387) amplitude =  0.9265
    D(    4) --> V( 1390) amplitude = -0.2675

 Excited state  18: excitation energy (eV) =    1026.8672
 Total energy for state  18:                  -574.06647153 au
    Multiplicity: Singlet
    Trans. Mom.:  0.0005 X  -0.0011 Y   0.0004 Z
    Strength   :     0.0000434644
    D(    4) --> V( 1388) amplitude =  0.9248
    D(    4) --> V( 1389) amplitude =  0.3133

 Excited state  19: excitation energy (eV) =    1027.7867
 Total energy for state  19:                  -574.03268008 au
    Multiplicity: Singlet
    Trans. Mom.: -0.0072 X  -0.0128 Y  -0.0008 Z
    Strength   :     0.0054723983
    D(    4) --> V( 1391) amplitude = -0.2585
    D(    4) --> V( 1392) amplitude =  0.4662
    D(    4) --> V( 1394) amplitude =  0.5729
    D(    4) --> V( 1397) amplitude = -0.4578

 Excited state  20: excitation energy (eV) =    1029.0614
 Total energy for state  20:                  -573.98583567 au
    Multiplicity: Singlet
    Trans. Mom.:  0.0008 X  -0.0003 Y   0.0002 Z
    Strength   :     0.0000215559
    D(    4) --> V( 1398) amplitude =  0.7594
    D(    4) --> V( 1399) amplitude =  0.4409
    D(    4) --> V( 1404) amplitude = -0.2697

 Excited state  21: excitation energy (eV) =    1029.4865
 Total energy for state  21:                  -573.97021400 au
    Multiplicity: Singlet
    Trans. Mom.: -0.0012 X  -0.0008 Y  -0.0003 Z
    Strength   :     0.0000526280
    D(    4) --> V( 1391) amplitude =  0.9369
    D(    4) --> V( 1392) amplitude =  0.2917

 Excited state  22: excitation energy (eV) =    1029.6540
 Total energy for state  22:                  -573.96405860 au
    Multiplicity: Singlet
    Trans. Mom.: -0.0004 X   0.0067 Y   0.0026 Z
    Strength   :     0.0013262225
    D(    4) --> V( 1390) amplitude =  0.2917
    D(    4) --> V( 1392) amplitude =  0.7806
    D(    4) --> V( 1394) amplitude = -0.4691

 Excited state  23: excitation energy (eV) =    1030.2913
 Total energy for state  23:                  -573.94063646 au
    Multiplicity: Singlet
    Trans. Mom.:  0.0034 X  -0.0002 Y  -0.0019 Z
    Strength   :     0.0003806203
    D(    4) --> V( 1393) amplitude =  0.8633
    D(    4) --> V( 1397) amplitude = -0.2344
    D(    4) --> V( 1399) amplitude = -0.2835

 Excited state  24: excitation energy (eV) =    1030.5949
 Total energy for state  24:                  -573.92948091 au
    Multiplicity: Singlet
    Trans. Mom.: -0.0055 X  -0.0019 Y   0.0019 Z
    Strength   :     0.0009580872
    D(    4) --> V( 1393) amplitude =  0.4646
    D(    4) --> V( 1394) amplitude =  0.2747
    D(    4) --> V( 1397) amplitude =  0.3862
    D(    4) --> V( 1398) amplitude = -0.2320
    D(    4) --> V( 1399) amplitude =  0.4346
    D(    4) --> V( 1403) amplitude =  0.3655
    D(    4) --> V( 1405) amplitude =  0.3019

 Excited state  25: excitation energy (eV) =    1031.1597
 Total energy for state  25:                  -573.90872410 au
    Multiplicity: Singlet
    Trans. Mom.:  0.0016 X   0.0015 Y  -0.0013 Z
    Strength   :     0.0001642915
    D(    4) --> V( 1394) amplitude =  0.2729
    D(    4) --> V( 1395) amplitude =  0.7862
    D(    4) --> V( 1397) amplitude =  0.4379

 Excited state  26: excitation energy (eV) =    1031.5585
 Total energy for state  26:                  -573.89406911 au
    Multiplicity: Singlet
    Trans. Mom.:  0.0044 X   0.0009 Y   0.0002 Z
    Strength   :     0.0005120991
    D(    4) --> V( 1396) amplitude =  0.9576
    D(    4) --> V( 1397) amplitude =  0.2319

 Excited state  27: excitation energy (eV) =    1031.7297
 Total energy for state  27:                  -573.88777673 au
    Multiplicity: Singlet
    Trans. Mom.: -0.0039 X  -0.0021 Y   0.0005 Z
    Strength   :     0.0005075933
    D(    4) --> V( 1394) amplitude = -0.3615
    D(    4) --> V( 1395) amplitude =  0.5152
    D(    4) --> V( 1397) amplitude = -0.5027
    D(    4) --> V( 1398) amplitude = -0.2978
    D(    4) --> V( 1399) amplitude =  0.3348
    D(    4) --> V( 1403) amplitude =  0.2398

 Excited state  28: excitation energy (eV) =    1034.2802
 Total energy for state  28:                  -573.79404528 au
    Multiplicity: Singlet
    Trans. Mom.: -0.0015 X   0.0005 Y   0.0004 Z
    Strength   :     0.0000647770
    D(    4) --> V( 1398) amplitude =  0.3833
    D(    4) --> V( 1399) amplitude = -0.3750
    D(    4) --> V( 1401) amplitude =  0.5540
    D(    4) --> V( 1402) amplitude = -0.4709
    D(    4) --> V( 1403) amplitude =  0.3525

 Excited state  29: excitation energy (eV) =    1034.5078
 Total energy for state  29:                  -573.78568275 au
    Multiplicity: Singlet
    Trans. Mom.:  0.0011 X   0.0005 Y   0.0002 Z
    Strength   :     0.0000366155
    D(    4) --> V( 1399) amplitude =  0.3263
    D(    4) --> V( 1400) amplitude =  0.4935
    D(    4) --> V( 1401) amplitude =  0.6394
    D(    4) --> V( 1403) amplitude = -0.3848
    D(    4) --> V( 1405) amplitude = -0.2132

 Excited state  30: excitation energy (eV) =    1034.6591
 Total energy for state  30:                  -573.78012114 au
    Multiplicity: Singlet
    Trans. Mom.: -0.0001 X  -0.0004 Y  -0.0002 Z
    Strength   :     0.0000058854
    D(    4) --> V( 1400) amplitude =  0.8160
    D(    4) --> V( 1401) amplitude = -0.5062
    D(    4) --> V( 1402) amplitude = -0.2394

 Excited state  31: excitation energy (eV) =    1034.7921
 Total energy for state  31:                  -573.77523464 au
    Multiplicity: Singlet
    Trans. Mom.: -0.0006 X   0.0022 Y   0.0015 Z
    Strength   :     0.0001870248
    D(    4) --> V( 1399) amplitude = -0.3183
    D(    4) --> V( 1400) amplitude =  0.2551
    D(    4) --> V( 1402) amplitude =  0.7868
    D(    4) --> V( 1403) amplitude =  0.3284

 Excited state  32: excitation energy (eV) =    1035.1362
 Total energy for state  32:                  -573.76258838 au
    Multiplicity: Singlet
    Trans. Mom.:  0.0003 X   0.0015 Y  -0.0009 Z
    Strength   :     0.0000811817
    D(    4) --> V( 1403) amplitude =  0.4200
    D(    4) --> V( 1404) amplitude =  0.7805
    D(    4) --> V( 1405) amplitude = -0.2848

 Excited state  33: excitation energy (eV) =    1036.1761
 Total energy for state  33:                  -573.72437427 au
    Multiplicity: Singlet
    Trans. Mom.:  0.0020 X  -0.0007 Y  -0.0016 Z
    Strength   :     0.0001753362
    D(    4) --> V( 1403) amplitude = -0.3964
    D(    4) --> V( 1404) amplitude =  0.4748
    D(    4) --> V( 1405) amplitude =  0.7713

 Excited state  34: excitation energy (eV) =    1037.4742
 Total energy for state  34:                  -573.67667101 au
    Multiplicity: Singlet
    Trans. Mom.:  0.0001 X   0.0007 Y   0.0004 Z
    Strength   :     0.0000148531
    D(    4) --> V( 1406) amplitude =  0.9974

 Excited state  35: excitation energy (eV) =    1037.8981
 Total energy for state  35:                  -573.66109050 au
    Multiplicity: Singlet
    Trans. Mom.: -0.0009 X   0.0001 Y   0.0001 Z
    Strength   :     0.0000234357
    D(    4) --> V( 1407) amplitude =  0.9985

 Excited state  36: excitation energy (eV) =    1038.4090
 Total energy for state  36:                  -573.64231756 au
    Multiplicity: Singlet
    Trans. Mom.: -0.0008 X  -0.0044 Y  -0.0013 Z
    Strength   :     0.0005501218
    D(    4) --> V( 1409) amplitude =  0.9612

 Excited state  37: excitation energy (eV) =    1038.7473
 Total energy for state  37:                  -573.62988527 au
    Multiplicity: Singlet
    Trans. Mom.:  0.0003 X  -0.0005 Y  -0.0007 Z
    Strength   :     0.0000195076
    D(    4) --> V( 1408) amplitude =  0.9966

 Excited state  38: excitation energy (eV) =    1040.5230
 Total energy for state  38:                  -573.56462906 au
    Multiplicity: Singlet
    Trans. Mom.:  0.0008 X   0.0068 Y   0.0057 Z
    Strength   :     0.0020016703
    D(    4) --> V( 1411) amplitude =  0.5674
    D(    4) --> V( 1413) amplitude =  0.3394
    D(    4) --> V( 1417) amplitude =  0.6294

 Excited state  39: excitation energy (eV) =    1042.0398
 Total energy for state  39:                  -573.50888528 au
    Multiplicity: Singlet
    Trans. Mom.:  0.0009 X  -0.0024 Y  -0.0029 Z
    Strength   :     0.0003941757
    D(    4) --> V( 1410) amplitude =  0.2761
    D(    4) --> V( 1411) amplitude =  0.7601
    D(    4) --> V( 1413) amplitude = -0.2946
    D(    4) --> V( 1417) amplitude = -0.3928

 Excited state  40: excitation energy (eV) =    1042.3300
 Total energy for state  40:                  -573.49822385 au
    Multiplicity: Singlet
    Trans. Mom.:  0.0000 X   0.0004 Y   0.0007 Z
    Strength   :     0.0000157066
    D(    4) --> V( 1410) amplitude =  0.9596
    D(    4) --> V( 1411) amplitude = -0.2448

 Excited state  41: excitation energy (eV) =    1044.0278
 Total energy for state  41:                  -573.43582958 au
    Multiplicity: Singlet
    Trans. Mom.: -0.0003 X  -0.0001 Y   0.0005 Z
    Strength   :     0.0000090118
    D(    4) --> V( 1412) amplitude =  0.9256
    D(    4) --> V( 1413) amplitude =  0.2866

 Excited state  42: excitation energy (eV) =    1044.4893
 Total energy for state  42:                  -573.41886877 au
    Multiplicity: Singlet
    Trans. Mom.: -0.0007 X  -0.0015 Y  -0.0021 Z
    Strength   :     0.0001889119
    D(    4) --> V( 1412) amplitude = -0.2198
    D(    4) --> V( 1413) amplitude =  0.6946
    D(    4) --> V( 1414) amplitude = -0.3633
    D(    4) --> V( 1416) amplitude =  0.2381
    D(    4) --> V( 1417) amplitude = -0.3683
    D(    4) --> V( 1432) amplitude = -0.2926

 Excited state  43: excitation energy (eV) =    1044.6073

 Excited state 100: excitation energy (eV) =    1101.9960
 Excited state 101: excitation energy (eV) =    1114.1987
 Excited state 102: excitation energy (eV) =    1114.9790
 Excited state 103: excitation energy (eV) =    1115.8965
 Excited state 104: excitation energy (eV) =    1116.2484
 Excited state 105: excitation energy (eV) =    1116.5160
 Excited state 106: excitation energy (eV) =    1116.7571
 Excited state 107: excitation energy (eV) =    1117.2535
 Excited state 108: excitation energy (eV) =    1117.4898
 Excited state 109: excitation energy (eV) =    1117.7929
 Excited state 110: excitation energy (eV) =    1118.2156
 Excited state 111: excitation energy (eV) =    1118.4749
 Excited state 112: excitation energy (eV) =    1118.5218

                    Orbital Energies (a.u.)
 --------------------------------------------------------------

 Alpha MOs
 -- Occupied --
-19.2048 -19.1591 -19.1541 -19.1408 -19.1117 -19.1104 -19.0985 -19.0881
 -1.0957  -1.0463  -1.0363  -1.0325  -1.0115  -0.9928  -0.9719  -0.9672
 -0.5856  -0.5837  -0.5664  -0.5537  -0.5441  -0.5138  -0.4910  -0.4883
 -0.4813  -0.4325  -0.4229  -0.4115  -0.4079  -0.3820  -0.3679  -0.3640
 -0.3598  -0.3514  -0.3355  -0.3313  -0.3109  -0.3023  -0.2851  -0.2783

                    Cartesian Multipole Moments
 -----------------------------------------------------------------
    Charge (ESU x 10^10)
                -0.0000
    Dipole Moment (Debye)
         X       6.6924      Y      -7.4245      Z       0.1409
       Tot       9.9965
    Quadrupole Moments (Debye-Ang)
        XX     -53.6309     XY      -8.1989     YY     -47.3333
        XZ     -13.8251     YZ       1.1419     ZZ     -55.7496

 Total job time:  79674.80s(wall), 311474.32s(cpu)
        *  Thank you very much for using Q-Chem.  Have a nice day.  *
