 Q-Chem 6.2 (devel), Q-Chem, Inc., Pleasanton, CA (2024)
 Q-Chem 6.2.2 for Intel X86 EM64T Linux

User input:
--------------------------------------------------------------
$molecule
0 1
O 0.61838 -0.47016 0.36382
H -0.34202 -0.36246 0.41982
H 0.77338 -1.41916 0.59082
O 1.96208 1.91654 0.52682
H 1.32408 2.60154 0.67382
H 1.37968 1.18354 0.58382
O -2.18522 -0.38376 2.16882
H -2.72032 -1.17186 2.47682
H -2.89852 0.15054 1.69182
O 0.41498 -0.71826 -2.97018
H -0.40742 -0.23846 -3.10818
H 0.72858 -0.56656 -2.05718
O -2.86812 -0.68366 -1.98118
H -2.41912 -0.02346 -1.42018
H -3.67482 -0.76106 -1.50718
O 3.03908 0.15354 -1.64918
H 3.76308 0.09754 -1.00818
H 2.66408 0.95054 -1.22718
O -1.88482 1.88754 -1.02018
H -2.53682 2.55454 -1.13718
H -1.34652 2.15854 -0.26218
O -0.27842 1.32754 3.38582
H -0.61782 0.48254 3.03882
H 0.55028 1.01654 3.84082
O 1.30918 -3.04536 0.97382
H 2.19108 -2.78586 1.32482
H 1.57148 -3.61166 0.28582
$end

$rem
method                    b3lyp
basis                     cc-pv5z
mem_total                 48000
mem_static                8000
thresh                    12
scf_convergence           8
xc_grid                   000075000302
max_scf_cycles            2000
symmetry                  false
sym_ignore                true
print_orbitals true
$end
gui                       2
molden_format true
--------------------------------------------------------------

             Standard Nuclear Orientation (Angstroms)
    I     Atom           X                Y                Z
 ----------------------------------------------------------------
    1      O       0.6183800000    -0.4701600000     0.3638200000
    2      H      -0.3420200000    -0.3624600000     0.4198200000
    3      H       0.7733800000    -1.4191600000     0.5908200000
    4      O       1.9620800000     1.9165400000     0.5268200000
    5      H       1.3240800000     2.6015400000     0.6738200000
    6      H       1.3796800000     1.1835400000     0.5838200000
    7      O      -2.1852200000    -0.3837600000     2.1688200000
    8      H      -2.7203200000    -1.1718600000     2.4768200000
    9      H      -2.8985200000     0.1505400000     1.6918200000
   10      O       0.4149800000    -0.7182600000    -2.9701800000
   11      H      -0.4074200000    -0.2384600000    -3.1081800000
   12      H       0.7285800000    -0.5665600000    -2.0571800000
   13      O      -2.8681200000    -0.6836600000    -1.9811800000
   14      H      -2.4191200000    -0.0234600000    -1.4201800000
   15      H      -3.6748200000    -0.7610600000    -1.5071800000
   16      O       3.0390800000     0.1535400000    -1.6491800000
   17      H       3.7630800000     0.0975400000    -1.0081800000
   18      H       2.6640800000     0.9505400000    -1.2271800000
   19      O      -1.8848200000     1.8875400000    -1.0201800000
   20      H      -2.5368200000     2.5545400000    -1.1371800000
   21      H      -1.3465200000     2.1585400000    -0.2621800000
   22      O      -0.2784200000     1.3275400000     3.3858200000
   23      H      -0.6178200000     0.4825400000     3.0388200000
   24      H       0.5502800000     1.0165400000     3.8408200000
   25      O       1.3091800000    -3.0453600000     0.9738200000
   26      H       2.1910800000    -2.7858600000     1.3248200000
   27      H       1.5714800000    -3.6116600000     0.2858200000
 ----------------------------------------------------------------

   12    -688.2800862310      9.84e-10  Convergence criterion met
 Total energy =  -688.28008623

                    Orbital Energies (a.u.)
 --------------------------------------------------------------

 Alpha MOs
 -- Occupied --
-19.1824 -19.1724 -19.1697 -19.1278 -19.1238 -19.1198 -19.1151 -19.0996
-19.0790  -1.0663  -1.0598  -1.0460  -1.0215  -1.0122  -1.0075  -0.9987
 -0.9853  -0.9595  -0.5820  -0.5716  -0.5562  -0.5371  -0.5231  -0.5216
 -0.5162  -0.4920  -0.4740  -0.4534  -0.4449  -0.4385  -0.4175  -0.3957
 -0.3937  -0.3919  -0.3776  -0.3631  -0.3604  -0.3589  -0.3420  -0.3242
 -0.3128  -0.3116  -0.3078  -0.2877  -0.2688

          Ground-State Mulliken Net Atomic Charges

     Atom                 Charge (a.u.)
  ----------------------------------------
      1 O                    -0.813533
      2 H                     0.384646
      3 H                     0.406339
      4 O                    -0.683123
      5 H                     0.286559
      6 H                     0.377132
      7 O                    -0.585578
      8 H                     0.294336
      9 H                     0.311188
     10 O                    -0.688662
     11 H                     0.327557
     12 H                     0.353683
     13 O                    -0.598119
     14 H                     0.339446
     15 H                     0.238458
     16 O                    -0.644946
     17 H                     0.275960
     18 H                     0.366608
     19 O                    -0.595602
     20 H                     0.304877
     21 H                     0.306462
     22 O                    -0.663333
     23 H                     0.355812
     24 H                     0.297632
     25 O                    -0.628035
     26 H                     0.332321
     27 H                     0.341916
  ----------------------------------------
  Sum of atomic charges =     0.000000

                    Cartesian Multipole Moments
 -----------------------------------------------------------------
    Charge (ESU x 10^10)
                -0.0000
    Dipole Moment (Debye)
         X      -4.0167      Y      -0.5995      Z       6.2726
       Tot       7.4725
    Quadrupole Moments (Debye-Ang)
        XX     -41.1722     XY     -12.9123     YY     -47.8330
        XZ       5.4061     YZ     -14.4599     ZZ     -82.3657

 Total job time:  10265.13s(wall), 325084.36s(cpu)
        *  Thank you very much for using Q-Chem.  Have a nice day.  *
