 Q-Chem 6.2 (devel), Q-Chem, Inc., Pleasanton, CA (2024)
 Q-Chem 6.2.2 for Intel X86 EM64T Linux

User input:
--------------------------------------------------------------
$molecule
0 1
O 0.96796 -0.11257 -1.08980
H 1.87996 -0.30837 -1.18480
H 0.89706 -0.42357 -0.15810
O -1.11244 -1.68107 -1.99910
H -0.64234 -2.44357 -1.63650
H -0.51084 -0.91367 -1.93860
O 0.69286 2.71033 -0.35620
H 1.08056 1.85543 -0.66060
H -0.27674 2.49433 -0.44960
O -1.39564 0.65213 1.96290
H -0.57854 0.22543 2.10590
H -1.97394 0.42413 2.69890
O 0.73296 -1.38067 1.38890
H 0.28636 -2.19447 1.16440
H 1.65226 -1.70167 1.54020
$end

$rem
method                    b3lyp
basis                     cc-pv5z
mem_total                 48000
mem_static                8000
thresh                    12
scf_convergence           8
xc_grid                   000075000302
max_scf_cycles            2000
symmetry                  false
sym_ignore                true
print_orbitals true
$end
gui                       2
molden_format true
--------------------------------------------------------------

             Standard Nuclear Orientation (Angstroms)
    I     Atom           X                Y                Z
 ----------------------------------------------------------------
    1      O       0.9679600000    -0.1125700000    -1.0898000000
    2      H       1.8799600000    -0.3083700000    -1.1848000000
    3      H       0.8970600000    -0.4235700000    -0.1581000000
    4      O      -1.1124400000    -1.6810700000    -1.9991000000
    5      H      -0.6423400000    -2.4435700000    -1.6365000000
    6      H      -0.5108400000    -0.9136700000    -1.9386000000
    7      O       0.6928600000     2.7103300000    -0.3562000000
    8      H       1.0805600000     1.8554300000    -0.6606000000
    9      H      -0.2767400000     2.4943300000    -0.4496000000
   10      O      -1.3956400000     0.6521300000     1.9629000000
   11      H      -0.5785400000     0.2254300000     2.1059000000
   12      H      -1.9739400000     0.4241300000     2.6989000000
   13      O       0.7329600000    -1.3806700000     1.3889000000
   14      H       0.2863600000    -2.1944700000     1.1644000000
   15      H       1.6522600000    -1.7016700000     1.5402000000
 ----------------------------------------------------------------

   12    -382.3760255512      1.25e-09  Convergence criterion met
 Total energy =  -382.37602555

                    Orbital Energies (a.u.)
 --------------------------------------------------------------

 Alpha MOs
 -- Occupied --
-19.2020 -19.1569 -19.1183 -19.1066 -19.0999  -1.0872  -1.0535  -1.0120
 -0.9884  -0.9718  -0.5933  -0.5539  -0.5397  -0.5207  -0.4846  -0.4747
 -0.4488  -0.3939  -0.3882  -0.3791  -0.3642  -0.3349  -0.3126  -0.2990
 -0.2859

          Ground-State Mulliken Net Atomic Charges

     Atom                 Charge (a.u.)
  ----------------------------------------
      1 O                    -0.757572
      2 H                     0.325965
      3 H                     0.407103
      4 O                    -0.682107
      5 H                     0.268658
      6 H                     0.409718
      7 O                    -0.686969
      8 H                     0.347519
      9 H                     0.328950
     10 O                    -0.594741
     11 H                     0.328543
     12 H                     0.264719
     13 O                    -0.649536
     14 H                     0.359341
     15 H                     0.330412
  ----------------------------------------
  Sum of atomic charges =     0.000000

                    Cartesian Multipole Moments
 -----------------------------------------------------------------
    Charge (ESU x 10^10)
                -0.0000
    Dipole Moment (Debye)
         X       3.6382      Y      -5.9217      Z       3.3609
       Tot       7.7200
    Quadrupole Moments (Debye-Ang)
        XX     -29.1942     XY     -10.1895     YY     -37.2407
        XZ      -4.8831     YZ      -7.3363     ZZ     -34.0145

 Total job time:  4176.62s(wall), 98585.17s(cpu)
        *  Thank you very much for using Q-Chem.  Have a nice day.  *
