 Q-Chem 6.2 (devel), Q-Chem, Inc., Pleasanton, CA (2024)
 Q-Chem 6.2.2 for Intel X86 EM64T Linux

User input:
--------------------------------------------------------------
$molecule
read
$end

$rem
method                    b3lyp
basis                     cc-pv5z
mem_total                 128000
mem_static                4000
thresh                    12
scf_convergence           8
xc_grid                   000075000302
max_scf_cycles            2000
symmetry                  false
sym_ignore                true
scf_guess                 read
mom_start                 1
cis_n_roots               200
cis_triplets              false
rpa                       false
trnss                     true
trtype                    2
n_sol                     131
nto_pairs                 2
gui                       2
print_orbitals            true
state_analysis            true
$end

$solute
4 1582 1583 1584 1585 1586 1587 1588 1589 1590 1591 1592 1593 1594 1595 1596 1597 1598 1599 1600 1601 1602 1603 1604 1605 1606 1607 1608 1609 1610 1611 1612 1613 1614 1615 1616 1617 1618 1619 1620 1621 1622 1623 1624 1625 1626 1627 1628 1629 1630 1631 1632 1633 1634 1635 1636 1637 1638 1639 1640 1641 1642 1643 1644 1645 1646 1647 1648 1649 1650 1651 1652 1653 1654 1655 1656 1657 1658 1659 1660 1661 1662 1663 1664 1665 1666 1667 1668 1669 1670 1671 1672 1673 1674 1675 1676 1677 1678 1679 1680 1681 1682 1683 1684 1685 1686 1687 1688 1689 1690 1691 1692 1693 1694 1695 1696 1697 1698 1699 1700 1701 1702 1703 1704 1705 1706 1707 1708 1709 1710 1711
$end
--------------------------------------------------------------

             Standard Nuclear Orientation (Angstroms)
    I     Atom           X                Y                Z
 ----------------------------------------------------------------
    1      O       0.6183800000    -0.4701600000     0.3638200000
    2      H      -0.3420200000    -0.3624600000     0.4198200000
    3      H       0.7733800000    -1.4191600000     0.5908200000
    4      O       1.9620800000     1.9165400000     0.5268200000
    5      H       1.3240800000     2.6015400000     0.6738200000
    6      H       1.3796800000     1.1835400000     0.5838200000
    7      O      -2.1852200000    -0.3837600000     2.1688200000
    8      H      -2.7203200000    -1.1718600000     2.4768200000
    9      H      -2.8985200000     0.1505400000     1.6918200000
   10      O       0.4149800000    -0.7182600000    -2.9701800000
   11      H      -0.4074200000    -0.2384600000    -3.1081800000
   12      H       0.7285800000    -0.5665600000    -2.0571800000
   13      O      -2.8681200000    -0.6836600000    -1.9811800000
   14      H      -2.4191200000    -0.0234600000    -1.4201800000
   15      H      -3.6748200000    -0.7610600000    -1.5071800000
   16      O       3.0390800000     0.1535400000    -1.6491800000
   17      H       3.7630800000     0.0975400000    -1.0081800000
   18      H       2.6640800000     0.9505400000    -1.2271800000
   19      O      -1.8848200000     1.8875400000    -1.0201800000
   20      H      -2.5368200000     2.5545400000    -1.1371800000
   21      H      -1.3465200000     2.1585400000    -0.2621800000
   22      O      -0.2784200000     1.3275400000     3.3858200000
   23      H      -0.6178200000     0.4825400000     3.0388200000
   24      H       0.5502800000     1.0165400000     3.8408200000
   25      O       1.3091800000    -3.0453600000     0.9738200000
   26      H       2.1910800000    -2.7858600000     1.3248200000
   27      H       1.5714800000    -3.6116600000     0.2858200000
 ----------------------------------------------------------------

    2    -688.2800862310      1.11e-09  Convergence criterion met
 Total energy =  -688.28008623

         TDDFT/TDA Excitation Energies
 ---------------------------------------------------

 Excited state   1: excitation energy (eV) =    1016.4154
 Total energy for state   1:                  -650.92750862 au
    Multiplicity: Singlet
    Trans. Mom.: -0.0055 X   0.0164 Y  -0.0028 Z
    Strength   :     0.0076085248
    D(    4) --> V( 1537) amplitude =  0.5720
    D(    4) --> V( 1538) amplitude = -0.5447
    D(    4) --> V( 1539) amplitude = -0.4391
    D(    4) --> V( 1541) amplitude =  0.2422
    D(    4) --> V( 1547) amplitude = -0.2584

 Excited state   2: excitation energy (eV) =    1018.1624
 Total energy for state   2:                  -650.86330649 au
    Multiplicity: Singlet
    Trans. Mom.: -0.0094 X  -0.0023 Y   0.0021 Z
    Strength   :     0.0024644336
    D(    4) --> V( 1547) amplitude =  0.7554
    D(    4) --> V( 1548) amplitude = -0.3628

 Excited state   3: excitation energy (eV) =    1019.1341
 Total energy for state   3:                  -650.82759959 au
    Multiplicity: Singlet
    Trans. Mom.: -0.0027 X   0.0031 Y  -0.0001 Z
    Strength   :     0.0004196032
    D(    4) --> V( 1537) amplitude =  0.7547
    D(    4) --> V( 1538) amplitude =  0.5751
    D(    4) --> V( 1539) amplitude =  0.2410

 Excited state   4: excitation energy (eV) =    1019.4057
 Total energy for state   4:                  -650.81761806 au
    Multiplicity: Singlet
    Trans. Mom.:  0.0010 X  -0.0007 Y  -0.0001 Z
    Strength   :     0.0000369411
    D(    4) --> V( 1538) amplitude = -0.4927
    D(    4) --> V( 1539) amplitude =  0.7963

 Excited state   5: excitation energy (eV) =    1019.4829
 Total energy for state   5:                  -650.81478207 au
    Multiplicity: Singlet
    Trans. Mom.: -0.0063 X   0.0069 Y  -0.0002 Z
    Strength   :     0.0022007656
    D(    4) --> V( 1539) amplitude =  0.2470
    D(    4) --> V( 1540) amplitude =  0.7063
    D(    4) --> V( 1541) amplitude =  0.3913
    D(    4) --> V( 1551) amplitude =  0.2149
    D(    4) --> V( 1553) amplitude =  0.2464

 Excited state   6: excitation energy (eV) =    1019.7077
 Total energy for state   6:                  -650.80651913 au
    Multiplicity: Singlet
    Trans. Mom.: -0.0012 X   0.0028 Y   0.0002 Z
    Strength   :     0.0002360614
    D(    4) --> V( 1540) amplitude = -0.5044
    D(    4) --> V( 1541) amplitude =  0.8260

 Excited state   7: excitation energy (eV) =    1019.9907
 Total energy for state   7:                  -650.79612017 au
    Multiplicity: Singlet
    Trans. Mom.:  0.0103 X  -0.0086 Y   0.0010 Z
    Strength   :     0.0045155018
    D(    4) --> V( 1540) amplitude =  0.4434
    D(    4) --> V( 1541) amplitude =  0.2643
    D(    4) --> V( 1544) amplitude =  0.2503
    D(    4) --> V( 1550) amplitude = -0.4231
    D(    4) --> V( 1551) amplitude = -0.4277
    D(    4) --> V( 1553) amplitude = -0.3509
    D(    4) --> V( 1560) amplitude = -0.2141

 Excited state   8: excitation energy (eV) =    1020.4940
 Total energy for state   8:                  -650.77762420 au
    Multiplicity: Singlet
    Trans. Mom.:  0.0010 X  -0.0006 Y   0.0001 Z
    Strength   :     0.0000334258
    D(    4) --> V( 1542) amplitude =  0.9987

 Excited state   9: excitation energy (eV) =    1020.9200
 Total energy for state   9:                  -650.76196893 au
    Multiplicity: Singlet
    Trans. Mom.:  0.0001 X   0.0016 Y  -0.0005 Z
    Strength   :     0.0000730273
    D(    4) --> V( 1543) amplitude =  0.9799

 Excited state  10: excitation energy (eV) =    1021.0990
 Total energy for state  10:                  -650.75538946 au
    Multiplicity: Singlet
    Trans. Mom.:  0.0037 X  -0.0011 Y   0.0007 Z
    Strength   :     0.0003885546
    D(    4) --> V( 1544) amplitude =  0.7903
    D(    4) --> V( 1545) amplitude =  0.2776
    D(    4) --> V( 1553) amplitude =  0.3876

 Excited state  11: excitation energy (eV) =    1021.2217
 Total energy for state  11:                  -650.75087929 au
    Multiplicity: Singlet
    Trans. Mom.: -0.0056 X   0.0023 Y  -0.0008 Z
    Strength   :     0.0009419784
    D(    4) --> V( 1544) amplitude =  0.5192
    D(    4) --> V( 1545) amplitude = -0.4227
    D(    4) --> V( 1546) amplitude = -0.2480
    D(    4) --> V( 1550) amplitude =  0.3377
    D(    4) --> V( 1551) amplitude =  0.2620
    D(    4) --> V( 1553) amplitude = -0.3458
    D(    4) --> V( 1563) amplitude =  0.2133

 Excited state  12: excitation energy (eV) =    1021.4672
 Total energy for state  12:                  -650.74185783 au
    Multiplicity: Singlet
    Trans. Mom.: -0.0031 X   0.0000 Y  -0.0001 Z
    Strength   :     0.0002424478
    D(    4) --> V( 1545) amplitude =  0.8480
    D(    4) --> V( 1546) amplitude = -0.2382
    D(    4) --> V( 1553) amplitude = -0.3268

 Excited state  13: excitation energy (eV) =    1021.6577
 Total energy for state  13:                  -650.73485913 au
    Multiplicity: Singlet
    Trans. Mom.: -0.0031 X   0.0013 Y   0.0002 Z
    Strength   :     0.0002808717
    D(    4) --> V( 1546) amplitude =  0.9281

 Excited state  14: excitation energy (eV) =    1022.5872
 Total energy for state  14:                  -650.70069796 au
    Multiplicity: Singlet
    Trans. Mom.: -0.0008 X   0.0005 Y   0.0001 Z
    Strength   :     0.0000215792
    D(    4) --> V( 1547) amplitude =  0.4160
    D(    4) --> V( 1548) amplitude =  0.9071

 Excited state  15: excitation energy (eV) =    1023.0154
 Total energy for state  15:                  -650.68496246 au
    Multiplicity: Singlet
    Trans. Mom.:  0.0010 X  -0.0005 Y  -0.0001 Z
    Strength   :     0.0000288446
    D(    4) --> V( 1549) amplitude =  0.9676
    D(    4) --> V( 1551) amplitude =  0.2295

 Excited state  16: excitation energy (eV) =    1023.3053
 Total energy for state  16:                  -650.67431020 au
    Multiplicity: Singlet
    Trans. Mom.: -0.0002 X   0.0005 Y  -0.0001 Z
    Strength   :     0.0000077306
    D(    4) --> V( 1549) amplitude = -0.2251
    D(    4) --> V( 1550) amplitude = -0.6755
    D(    4) --> V( 1551) amplitude =  0.6981

 Excited state  17: excitation energy (eV) =    1024.0914
 Total energy for state  17:                  -650.64542315 au
    Multiplicity: Singlet
    Trans. Mom.:  0.0022 X   0.0007 Y  -0.0007 Z
    Strength   :     0.0001507344
    D(    4) --> V( 1552) amplitude =  0.7047
    D(    4) --> V( 1554) amplitude =  0.5433

 Excited state  18: excitation energy (eV) =    1024.4077
 Total energy for state  18:                  -650.63379643 au
    Multiplicity: Singlet
    Trans. Mom.: -0.0009 X  -0.0004 Y  -0.0001 Z
    Strength   :     0.0000252913
    D(    4) --> V( 1552) amplitude =  0.6345
    D(    4) --> V( 1553) amplitude =  0.4388
    D(    4) --> V( 1554) amplitude = -0.5981

 Excited state  19: excitation energy (eV) =    1024.9916
 Total energy for state  19:                  -650.61234146 au
    Multiplicity: Singlet
    Trans. Mom.:  0.0007 X  -0.0027 Y   0.0009 Z
    Strength   :     0.0002181247
    D(    4) --> V( 1553) amplitude =  0.3182
    D(    4) --> V( 1554) amplitude =  0.3644
    D(    4) --> V( 1560) amplitude = -0.3992
    D(    4) --> V( 1561) amplitude =  0.3120
    D(    4) --> V( 1562) amplitude = -0.3999
    D(    4) --> V( 1570) amplitude =  0.4072
    D(    4) --> V( 1572) amplitude = -0.2297

 Excited state  20: excitation energy (eV) =    1025.1335
 Total energy for state  20:                  -650.60712571 au
    Multiplicity: Singlet
    Trans. Mom.:  0.0018 X  -0.0003 Y  -0.0002 Z
    Strength   :     0.0000823257
    D(    4) --> V( 1554) amplitude = -0.2477
    D(    4) --> V( 1555) amplitude = -0.2348
    D(    4) --> V( 1556) amplitude =  0.9026

 Excited state  21: excitation energy (eV) =    1025.2239
 Total energy for state  21:                  -650.60380261 au
    Multiplicity: Singlet
    Trans. Mom.:  0.0101 X  -0.0064 Y   0.0008 Z
    Strength   :     0.0036146587
    D(    4) --> V( 1555) amplitude =  0.6738
    D(    4) --> V( 1557) amplitude = -0.2389
    D(    4) --> V( 1560) amplitude = -0.4416
    D(    4) --> V( 1563) amplitude = -0.3726

 Excited state  22: excitation energy (eV) =    1025.3275
 Total energy for state  22:                  -650.59999555 au
    Multiplicity: Singlet
    Trans. Mom.: -0.0075 X   0.0050 Y  -0.0006 Z
    Strength   :     0.0020596822
    D(    4) --> V( 1555) amplitude =  0.6977
    D(    4) --> V( 1556) amplitude =  0.2890
    D(    4) --> V( 1557) amplitude =  0.2499
    D(    4) --> V( 1560) amplitude =  0.3728
    D(    4) --> V( 1563) amplitude =  0.3126

 Excited state  23: excitation energy (eV) =    1025.6866
 Total energy for state  23:                  -650.58680072 au
    Multiplicity: Singlet
    Trans. Mom.:  0.0032 X  -0.0024 Y   0.0006 Z
    Strength   :     0.0004138116
    D(    4) --> V( 1557) amplitude =  0.9125
    D(    4) --> V( 1560) amplitude = -0.3193

 Excited state  24: excitation energy (eV) =    1026.1677
 Total energy for state  24:                  -650.56911761 au
    Multiplicity: Singlet
    Trans. Mom.: -0.0043 X   0.0004 Y   0.0010 Z
    Strength   :     0.0004989590
    D(    4) --> V( 1558) amplitude =  0.5909
    D(    4) --> V( 1561) amplitude = -0.3472
    D(    4) --> V( 1562) amplitude = -0.2411
    D(    4) --> V( 1563) amplitude =  0.4438
    D(    4) --> V( 1570) amplitude = -0.3200

 Excited state  25: excitation energy (eV) =    1026.2819
 Total energy for state  25:                  -650.56492067 au
    Multiplicity: Singlet
    Trans. Mom.:  0.0023 X   0.0005 Y  -0.0006 Z
    Strength   :     0.0001470774
    D(    4) --> V( 1558) amplitude =  0.7616
    D(    4) --> V( 1560) amplitude =  0.3769
    D(    4) --> V( 1561) amplitude =  0.2324
    D(    4) --> V( 1562) amplitude =  0.2420
    D(    4) --> V( 1563) amplitude = -0.2876

 Excited state  26: excitation energy (eV) =    1026.4447
 Total energy for state  26:                  -650.55893787 au
    Multiplicity: Singlet
    Trans. Mom.: -0.0001 X  -0.0003 Y  -0.0001 Z
    Strength   :     0.0000021325
    D(    4) --> V( 1559) amplitude =  0.9915

 Excited state  27: excitation energy (eV) =    1026.8966
 Total energy for state  27:                  -650.54233134 au
    Multiplicity: Singlet
    Trans. Mom.: -0.0012 X   0.0004 Y  -0.0009 Z
    Strength   :     0.0000638586
    D(    4) --> V( 1560) amplitude = -0.3491
    D(    4) --> V( 1561) amplitude =  0.3028
    D(    4) --> V( 1562) amplitude =  0.6968
    D(    4) --> V( 1563) amplitude =  0.5374

 Excited state  28: excitation energy (eV) =    1027.0714
 Total energy for state  28:                  -650.53590859 au
    Multiplicity: Singlet
    Trans. Mom.:  0.0018 X  -0.0000 Y  -0.0002 Z
    Strength   :     0.0000796538
    D(    4) --> V( 1561) amplitude =  0.7571
    D(    4) --> V( 1570) amplitude = -0.4882
    D(    4) --> V( 1572) amplitude =  0.2308
    D(    4) --> V( 1573) amplitude =  0.2175

 Excited state  29: excitation energy (eV) =    1027.9293
 Total energy for state  29:                  -650.50438056 au
    Multiplicity: Singlet
    Trans. Mom.:  0.0008 X   0.0003 Y  -0.0005 Z
    Strength   :     0.0000272366
    D(    4) --> V( 1564) amplitude =  0.9926

 Excited state  30: excitation energy (eV) =    1028.4167
 Total energy for state  30:                  -650.48646807 au
    Multiplicity: Singlet
    Trans. Mom.:  0.0002 X  -0.0002 Y  -0.0001 Z
    Strength   :     0.0000015597
    D(    4) --> V( 1565) amplitude =  0.9973

 Excited state  31: excitation energy (eV) =    1029.0773
 Total energy for state  31:                  -650.46219122 au
    Multiplicity: Singlet
    Trans. Mom.:  0.0017 X  -0.0003 Y  -0.0002 Z
    Strength   :     0.0000729011
    D(    4) --> V( 1566) amplitude =  0.9747

 Excited state  32: excitation energy (eV) =    1029.1962
 Total energy for state  32:                  -650.45782252 au
    Multiplicity: Singlet
    Trans. Mom.:  0.0012 X   0.0000 Y   0.0001 Z
    Strength   :     0.0000360004
    D(    4) --> V( 1567) amplitude =  0.9626

 Excited state  33: excitation energy (eV) =    1029.7108
 Total energy for state  33:                  -650.43891334 au
    Multiplicity: Singlet
    Trans. Mom.: -0.0055 X   0.0023 Y   0.0004 Z
    Strength   :     0.0008916879
    D(    4) --> V( 1567) amplitude =  0.2199
    D(    4) --> V( 1568) amplitude = -0.4207
    D(    4) --> V( 1570) amplitude =  0.3838
    D(    4) --> V( 1571) amplitude =  0.2694
    D(    4) --> V( 1572) amplitude =  0.6274
    D(    4) --> V( 1585) amplitude =  0.2177

 Excited state  34: excitation energy (eV) =    1029.9852
 Total energy for state  34:                  -650.42882703 au
    Multiplicity: Singlet
    Trans. Mom.: -0.0011 X   0.0008 Y   0.0004 Z
    Strength   :     0.0000496214
    D(    4) --> V( 1568) amplitude =  0.9040
    D(    4) --> V( 1572) amplitude =  0.3134

 Excited state  35: excitation energy (eV) =    1030.4660
 Total energy for state  35:                  -650.41115994 au
    Multiplicity: Singlet
    Trans. Mom.: -0.0006 X   0.0002 Y  -0.0001 Z
    Strength   :     0.0000095271
    D(    4) --> V( 1569) amplitude =  0.9937

 Excited state  36: excitation energy (eV) =    1031.0657
 Total energy for state  36:                  -650.38911939 au
    Multiplicity: Singlet
    Trans. Mom.:  0.0001 X   0.0001 Y  -0.0004 Z
    Strength   :     0.0000038870
    D(    4) --> V( 1571) amplitude =  0.9194
    D(    4) --> V( 1572) amplitude = -0.3905

 Excited state  37: excitation energy (eV) =    1031.3149
 Total energy for state  37:                  -650.37996353 au
    Multiplicity: Singlet
    Trans. Mom.:  0.0003 X   0.0048 Y  -0.0015 Z
    Strength   :     0.0006326941
    D(    4) --> V( 1570) amplitude =  0.3490
    D(    4) --> V( 1573) amplitude =  0.8654

 Excited state  38: excitation energy (eV) =    1031.8337
 Total energy for state  38:                  -650.36089814 au
    Multiplicity: Singlet
    Trans. Mom.: -0.0003 X   0.0017 Y  -0.0018 Z
    Strength   :     0.0001513629
    D(    4) --> V( 1574) amplitude =  0.9670

 Excited state  39: excitation energy (eV) =    1032.3981
 Total energy for state  39:                  -650.34015751 au
    Multiplicity: Singlet
    Trans. Mom.:  0.0010 X   0.0007 Y  -0.0010 Z
    Strength   :     0.0000592351
    D(    4) --> V( 1573) amplitude =  0.2316
    D(    4) --> V( 1575) amplitude =  0.4978
    D(    4) --> V( 1577) amplitude =  0.7558

 Excited state  40: excitation energy (eV) =    1032.5356
 Total energy for state  40:                  -650.33510439 au
    Multiplicity: Singlet
    Trans. Mom.: -0.0001 X  -0.0013 Y   0.0011 Z
    Strength   :     0.0000733928
    D(    4) --> V( 1575) amplitude =  0.8375
    D(    4) --> V( 1577) amplitude = -0.4967

 Excited state  41: excitation energy (eV) =    1032.8949
 Total energy for state  41:                  -650.32189917 au
    Multiplicity: Singlet
    Trans. Mom.: -0.0000 X   0.0029 Y  -0.0005 Z
    Strength   :     0.0002143116
    D(    4) --> V( 1572) amplitude =  0.2300
    D(    4) --> V( 1576) amplitude =  0.7578
    D(    4) --> V( 1584) amplitude =  0.3184
    D(    4) --> V( 1585) amplitude = -0.4488

 Excited state  42: excitation energy (eV) =    1033.1071
 Total energy for state  42:                  -650.31409931 au
    Multiplicity: Singlet
    Trans. Mom.:  0.0006 X  -0.0042 Y   0.0008 Z
    Strength   :     0.0004675098
    D(    4) --> V( 1572) amplitude = -0.2148
    D(    4) --> V( 1576) amplitude =  0.6341
    D(    4) --> V( 1584) amplitude = -0.3793
    D(    4) --> V( 1585) amplitude =  0.5350

 Excited state  43: excitation energy (eV) =    1033.9399
 Total energy for state  43:                  -650.28349727 au
    Multiplicity: Singlet
    Trans. Mom.: -0.0000 X   0.0004 Y   0.0012 Z
    Strength   :     0.0000410691
    D(    4) --> V( 1577) amplitude = -0.3152
    D(    4) --> V( 1579) amplitude =  0.8151
    D(    4) --> V( 1580) amplitude = -0.4637

 Excited state  44: excitation energy (eV) =    1034.3074
 Total energy for state  44:                  -650.26998904 au
    Multiplicity: Singlet
    Trans. Mom.: -0.0001 X   0.0002 Y  -0.0001 Z
    Strength   :     0.0000017713
    D(    4) --> V( 1578) amplitude =  0.9976

 Excited state  45: excitation energy (eV) =    1034.5448
 Total energy for state  45:                  -650.26126486 au
    Multiplicity: Singlet
    Trans. Mom.: -0.0002 X  -0.0005 Y  -0.0001 Z
    Strength   :     0.0000074882

 Excited state 100: excitation energy (eV) =    1062.6751
 Excited state 101: excitation energy (eV) =    1066.9652
 Excited state 102: excitation energy (eV) =    1070.0648
 Excited state 103: excitation energy (eV) =    1074.1139
 Excited state 104: excitation energy (eV) =    1075.8893
 Excited state 105: excitation energy (eV) =    1079.4709
 Excited state 106: excitation energy (eV) =    1080.0386
 Excited state 107: excitation energy (eV) =    1081.6993
 Excited state 108: excitation energy (eV) =    1081.9206
 Excited state 109: excitation energy (eV) =    1082.5964
 Excited state 110: excitation energy (eV) =    1083.1637
 Excited state 111: excitation energy (eV) =    1083.3024
 Excited state 112: excitation energy (eV) =    1083.7848
 Excited state 113: excitation energy (eV) =    1084.2289
 Excited state 114: excitation energy (eV) =    1085.4772
 Excited state 115: excitation energy (eV) =    1089.0960
 Excited state 116: excitation energy (eV) =    1089.8145
 Excited state 117: excitation energy (eV) =    1090.0263
 Excited state 118: excitation energy (eV) =    1090.5191
 Excited state 119: excitation energy (eV) =    1091.0854
 Excited state 120: excitation energy (eV) =    1093.0102
 Excited state 121: excitation energy (eV) =    1113.1477
 Excited state 122: excitation energy (eV) =    1113.5469
 Excited state 123: excitation energy (eV) =    1114.6952
 Excited state 124: excitation energy (eV) =    1115.7230
 Excited state 125: excitation energy (eV) =    1116.0047
 Excited state 126: excitation energy (eV) =    1116.6499
 Excited state 127: excitation energy (eV) =    1116.8866
 Excited state 128: excitation energy (eV) =    1117.2500
 Excited state 129: excitation energy (eV) =    1117.5712
 Excited state 130: excitation energy (eV) =    1118.1053

                    Orbital Energies (a.u.)
 --------------------------------------------------------------

 Alpha MOs
 -- Occupied --
-19.1824 -19.1724 -19.1697 -19.1278 -19.1238 -19.1198 -19.1151 -19.0996
-19.0790  -1.0663  -1.0598  -1.0460  -1.0215  -1.0122  -1.0075  -0.9987
 -0.9853  -0.9595  -0.5820  -0.5716  -0.5562  -0.5371  -0.5231  -0.5216
 -0.5162  -0.4920  -0.4740  -0.4534  -0.4449  -0.4385  -0.4175  -0.3957
 -0.3937  -0.3919  -0.3776  -0.3631  -0.3604  -0.3589  -0.3420  -0.3242
 -0.3128  -0.3116  -0.3078  -0.2877  -0.2688

                    Cartesian Multipole Moments
 -----------------------------------------------------------------
    Charge (ESU x 10^10)
                -0.0000
    Dipole Moment (Debye)
         X      -4.0167      Y      -0.5995      Z       6.2726
       Tot       7.4725
    Quadrupole Moments (Debye-Ang)
        XX     -41.1722     XY     -12.9123     YY     -47.8330
        XZ       5.4061     YZ     -14.4599     ZZ     -82.3657

 Total job time:  118039.00s(wall), 460628.91s(cpu)
        *  Thank you very much for using Q-Chem.  Have a nice day.  *
