 Q-Chem 6.2 (devel), Q-Chem, Inc., Pleasanton, CA (2024)
 Q-Chem 6.2.2 for Intel X86 EM64T Linux

User input:
--------------------------------------------------------------
$molecule
0 1
O 0.86737 3.82458 0.19485
O -0.47633 1.43788 0.03185
H -1.43673 1.54558 0.08785
H -0.32133 0.48888 0.25885
H 0.22937 4.50958 0.34185
H 0.28497 3.09158 0.25185
O 0.14567 -18.61042 -0.22115
H -0.40913 -19.36742 -0.13215
H -0.08003 -18.09302 -1.01715
O 1.94437 2.06158 -1.98115
H 2.66837 2.00558 -1.34015
H 1.56937 2.85858 -1.55915
O 2.29537 2.51358 2.27285
H 2.96137 3.03258 2.76885
H 1.99637 3.02758 1.47785
O -1.62533 4.90258 0.94885
H -2.52163 5.31158 0.88185
H -1.59173 4.24458 1.72585
O -2.97953 3.79558 -1.35215
H -3.63153 4.46258 -1.46915
H -2.44123 4.06658 -0.59415
$end

$rem
method                    b3lyp
basis                     cc-pv5z
mem_total                 48000
mem_static                8000
thresh                    12
scf_convergence           8
xc_grid                   000075000302
max_scf_cycles            2000
symmetry                  false
sym_ignore                true
print_orbitals true
$end
gui                       2
molden_format true
--------------------------------------------------------------

             Standard Nuclear Orientation (Angstroms)
    I     Atom           X                Y                Z
 ----------------------------------------------------------------
    1      O       0.8673700000     3.8245800000     0.1948500000
    2      O      -0.4763300000     1.4378800000     0.0318500000
    3      H      -1.4367300000     1.5455800000     0.0878500000
    4      H      -0.3213300000     0.4888800000     0.2588500000
    5      H       0.2293700000     4.5095800000     0.3418500000
    6      H       0.2849700000     3.0915800000     0.2518500000
    7      O       0.1456700000   -18.6104200000    -0.2211500000
    8      H      -0.4091300000   -19.3674200000    -0.1321500000
    9      H      -0.0800300000   -18.0930200000    -1.0171500000
   10      O       1.9443700000     2.0615800000    -1.9811500000
   11      H       2.6683700000     2.0055800000    -1.3401500000
   12      H       1.5693700000     2.8585800000    -1.5591500000
   13      O       2.2953700000     2.5135800000     2.2728500000
   14      H       2.9613700000     3.0325800000     2.7688500000
   15      H       1.9963700000     3.0275800000     1.4778500000
   16      O      -1.6253300000     4.9025800000     0.9488500000
   17      H      -2.5216300000     5.3115800000     0.8818500000
   18      H      -1.5917300000     4.2445800000     1.7258500000
   19      O      -2.9795300000     3.7955800000    -1.3521500000
   20      H      -3.6315300000     4.4625800000    -1.4691500000
   21      H      -2.4412300000     4.0665800000    -0.5941500000
 ----------------------------------------------------------------

   12    -535.3220159275      1.57e-09  Convergence criterion met
 Total energy =  -535.32201593

                    Orbital Energies (a.u.)
 --------------------------------------------------------------

 Alpha MOs
 -- Occupied --
-19.1976 -19.1544 -19.1313 -19.1293 -19.1276 -19.1030 -19.0975  -1.0646
 -1.0390  -1.0277  -1.0229  -1.0147  -0.9829  -0.9762  -0.5961  -0.5543
 -0.5503  -0.5485  -0.5409  -0.5095  -0.4732  -0.4601  -0.4266  -0.4095
 -0.4058  -0.3849  -0.3806  -0.3721  -0.3612  -0.3429  -0.3267  -0.3251
 -0.3206  -0.2927  -0.2851

          Ground-State Mulliken Net Atomic Charges

     Atom                 Charge (a.u.)
  ----------------------------------------
      1 O                    -0.774751
      2 O                    -0.557859
      3 H                     0.291735
      4 H                     0.298509
      5 H                     0.355300
      6 H                     0.404816
      7 O                    -0.576590
      8 H                     0.283094
      9 H                     0.293495
     10 O                    -0.656714
     11 H                     0.290403
     12 H                     0.362529
     13 O                    -0.681561
     14 H                     0.278471
     15 H                     0.375025
     16 O                    -0.666563
     17 H                     0.335122
     18 H                     0.362890
     19 O                    -0.623515
     20 H                     0.259934
     21 H                     0.346229
  ----------------------------------------
  Sum of atomic charges =     0.000000

                    Cartesian Multipole Moments
 -----------------------------------------------------------------
    Charge (ESU x 10^10)
                 0.0000
    Dipole Moment (Debye)
         X      -5.9623      Y       2.2990      Z       3.0191
       Tot       7.0675
    Quadrupole Moments (Debye-Ang)
        XX     -36.3025     XY       7.3399     YY      -6.0446
        XZ      -1.5468     YZ      32.9064     ZZ     -55.2510

 Total job time:  6384.88s(wall), 199535.57s(cpu)
        *  Thank you very much for using Q-Chem.  Have a nice day.  *
