 Q-Chem 6.2 (devel), Q-Chem, Inc., Pleasanton, CA (2024)
 Q-Chem 6.2.2 for Intel X86 EM64T Linux

User input:
--------------------------------------------------------------
$molecule
read
$end

$rem
method                    b3lyp
basis                     cc-pv5z
mem_total                 63000
mem_static                8000
thresh                    12
scf_convergence           8
xc_grid                   000075000302
max_scf_cycles            2000
symmetry                  false
sym_ignore                true
scf_guess                 read
mom_start                 1
cis_n_roots               200
cis_triplets              false
rpa                       false
trnss                     true
trtype                    2
n_sol                     113
nto_pairs                 2
gui                       2
print_orbitals            true
state_analysis            true
$end

$solute
3 1413 1414 1415 1416 1417 1418 1419 1420 1421 1422 1423 1424 1425 1426 1427 1428 1429 1430 1431 1432 1433 1434 1435 1436 1437 1438 1439 1440 1441 1442 1443 1444 1445 1446 1447 1448 1449 1450 1451 1452 1453 1454 1455 1456 1457 1458 1459 1460 1461 1462 1463 1464 1465 1466 1467 1468 1469 1470 1471 1472 1473 1474 1475 1476 1477 1478 1479 1480 1481 1482 1483 1484 1485 1486 1487 1488 1489 1490 1491 1492 1493 1494 1495 1496 1497 1498 1499 1500 1501 1502 1503 1504 1505 1506 1507 1508 1509 1510 1511 1512 1513 1514 1515 1516 1517 1518 1519 1520 1521 1522 1523 1524
$end
--------------------------------------------------------------

             Standard Nuclear Orientation (Angstroms)
    I     Atom           X                Y                Z
 ----------------------------------------------------------------
    1      O       0.7895600000     0.0372700000     0.8055400000
    2      H       0.2217300000    -0.7211300000     0.8915400000
    3      H       0.5685300000     0.3869400000    -0.0605600000
    4      O      -3.0884400000    -1.3177300000    -0.6634600000
    5      H      -2.2427400000    -1.7147300000    -0.4890600000
    6      H      -3.6379400000    -1.7585300000    -0.0074600000
    7      O      -1.0143400000    -2.5435300000     0.6555400000
    8      H      -0.1919400000    -3.0991300000     0.5315400000
    9      H      -1.3707400000    -2.9245300000     1.4845400000
   10      O      -2.4832400000     1.3234100000    -0.4436600000
   11      H      -3.1416400000     0.5940200000    -0.3292600000
   12      H      -2.0821400000     1.3829000000     0.4435400000
   13      O      -1.1947400000     1.8483600000     2.1955400000
   14      H      -1.1642400000     2.6862700000     2.6695400000
   15      H      -0.2901400000     1.6005100000     1.9315400000
   16      O       3.6995600000    -0.9315300000     1.4845400000
   17      H       2.8950600000    -0.4775300000     1.2905400000
   18      H       3.5377600000    -1.7529300000     0.9425400000
   19      O       3.3606600000     0.9411300000    -2.2614600000
   20      H       4.0444600000     0.4452100000    -1.7672600000
   21      H       2.5403600000     0.3935200000    -2.2350600000
   22      O       0.0070900000     0.8966200000    -1.8612600000
   23      H      -0.0118400000     0.0823700000    -2.3953600000
   24      H      -0.8831400000     0.8455800000    -1.4937600000
 ----------------------------------------------------------------

    2    -611.8252776476      3.92e-09  Convergence criterion met
 Total energy =  -611.82527765

         TDDFT/TDA Excitation Energies
 ---------------------------------------------------

 Excited state   1: excitation energy (eV) =    1016.6751
 Total energy for state   1:                  -574.46315504 au
    Multiplicity: Singlet
    Trans. Mom.: -0.0031 X  -0.0030 Y  -0.0028 Z
    Strength   :     0.0006573025
    D(    3) --> V( 1373) amplitude =  0.5793
    D(    3) --> V( 1374) amplitude =  0.2339
    D(    3) --> V( 1376) amplitude =  0.7013
    D(    3) --> V( 1379) amplitude =  0.2273

 Excited state   2: excitation energy (eV) =    1017.3489
 Total energy for state   2:                  -574.43839635 au
    Multiplicity: Singlet
    Trans. Mom.: -0.0036 X  -0.0030 Y  -0.0018 Z
    Strength   :     0.0006270356
    D(    3) --> V( 1373) amplitude =  0.5984
    D(    3) --> V( 1374) amplitude =  0.2712
    D(    3) --> V( 1376) amplitude = -0.5543
    D(    3) --> V( 1381) amplitude = -0.3775

 Excited state   3: excitation energy (eV) =    1018.3354
 Total energy for state   3:                  -574.40214261 au
    Multiplicity: Singlet
    Trans. Mom.:  0.0067 X   0.0034 Y   0.0103 Z
    Strength   :     0.0040427280
    D(    3) --> V( 1373) amplitude =  0.2844
    D(    3) --> V( 1377) amplitude = -0.2556
    D(    3) --> V( 1379) amplitude = -0.3228
    D(    3) --> V( 1380) amplitude = -0.3786
    D(    3) --> V( 1381) amplitude =  0.7491

 Excited state   4: excitation energy (eV) =    1021.2353
 Total energy for state   4:                  -574.29557278 au
    Multiplicity: Singlet
    Trans. Mom.:  0.0011 X   0.0008 Y   0.0009 Z
    Strength   :     0.0000645996
    D(    3) --> V( 1373) amplitude = -0.3861
    D(    3) --> V( 1374) amplitude =  0.9199

 Excited state   5: excitation energy (eV) =    1022.2004
 Total energy for state   5:                  -574.26010647 au
    Multiplicity: Singlet
    Trans. Mom.: -0.0005 X  -0.0002 Y  -0.0002 Z
    Strength   :     0.0000082350
    D(    3) --> V( 1375) amplitude =  0.9747

 Excited state   6: excitation energy (eV) =    1022.3271
 Total energy for state   6:                  -574.25544908 au
    Multiplicity: Singlet
    Trans. Mom.: -0.0005 X  -0.0013 Y   0.0014 Z
    Strength   :     0.0000991031
    D(    3) --> V( 1373) amplitude =  0.2271
    D(    3) --> V( 1377) amplitude =  0.8934

 Excited state   7: excitation energy (eV) =    1022.4154
 Total energy for state   7:                  -574.25220503 au
    Multiplicity: Singlet
    Trans. Mom.: -0.0000 X  -0.0006 Y   0.0001 Z
    Strength   :     0.0000098238
    D(    3) --> V( 1378) amplitude =  0.9643

 Excited state   8: excitation energy (eV) =    1022.7556
 Total energy for state   8:                  -574.23970200 au
    Multiplicity: Singlet
    Trans. Mom.:  0.0006 X   0.0003 Y   0.0009 Z
    Strength   :     0.0000312487
    D(    3) --> V( 1376) amplitude = -0.2477
    D(    3) --> V( 1379) amplitude =  0.8892
    D(    3) --> V( 1381) amplitude =  0.3718

 Excited state   9: excitation energy (eV) =    1023.0554
 Total energy for state   9:                  -574.22868355 au
    Multiplicity: Singlet
    Trans. Mom.: -0.0006 X  -0.0007 Y   0.0005 Z
    Strength   :     0.0000288719
    D(    3) --> V( 1377) amplitude = -0.2512
    D(    3) --> V( 1380) amplitude =  0.8716
    D(    3) --> V( 1381) amplitude =  0.2505

 Excited state  10: excitation energy (eV) =    1023.8991
 Total energy for state  10:                  -574.19768059 au
    Multiplicity: Singlet
    Trans. Mom.: -0.0006 X  -0.0006 Y   0.0002 Z
    Strength   :     0.0000215150
    D(    3) --> V( 1380) amplitude = -0.2236
    D(    3) --> V( 1382) amplitude =  0.9299

 Excited state  11: excitation energy (eV) =    1024.4339
 Total energy for state  11:                  -574.17802565 au
    Multiplicity: Singlet
    Trans. Mom.:  0.0004 X   0.0015 Y  -0.0012 Z
    Strength   :     0.0000928764
    D(    3) --> V( 1383) amplitude =  0.9815

 Excited state  12: excitation energy (eV) =    1025.0352
 Total energy for state  12:                  -574.15592866 au
    Multiplicity: Singlet
    Trans. Mom.: -0.0019 X  -0.0009 Y   0.0009 Z
    Strength   :     0.0001308229
    D(    3) --> V( 1384) amplitude =  0.9163

 Excited state  13: excitation energy (eV) =    1025.4415
 Total energy for state  13:                  -574.14099936 au
    Multiplicity: Singlet
    Trans. Mom.: -0.0003 X   0.0033 Y   0.0019 Z
    Strength   :     0.0003592997
    D(    3) --> V( 1385) amplitude =  0.8943
    D(    3) --> V( 1386) amplitude =  0.4140

 Excited state  14: excitation energy (eV) =    1025.5202
 Total energy for state  14:                  -574.13810439 au
    Multiplicity: Singlet
    Trans. Mom.:  0.0055 X   0.0064 Y  -0.0016 Z
    Strength   :     0.0018520705
    D(    3) --> V( 1384) amplitude =  0.2909
    D(    3) --> V( 1385) amplitude = -0.4023
    D(    3) --> V( 1386) amplitude =  0.8278

 Excited state  15: excitation energy (eV) =    1026.4173
 Total energy for state  15:                  -574.10513918 au
    Multiplicity: Singlet
    Trans. Mom.:  0.0018 X   0.0068 Y  -0.0047 Z
    Strength   :     0.0017882766
    D(    3) --> V( 1387) amplitude =  0.9301

 Excited state  16: excitation energy (eV) =    1026.8095
 Total energy for state  16:                  -574.09072398 au
    Multiplicity: Singlet
    Trans. Mom.:  0.0037 X   0.0109 Y  -0.0082 Z
    Strength   :     0.0050320942
    D(    3) --> V( 1387) amplitude = -0.3044
    D(    3) --> V( 1388) amplitude =  0.8070
    D(    3) --> V( 1398) amplitude = -0.3321
    D(    3) --> V( 1399) amplitude =  0.2961

 Excited state  17: excitation energy (eV) =    1027.2874
 Total energy for state  17:                  -574.07316215 au
    Multiplicity: Singlet
    Trans. Mom.: -0.0021 X  -0.0109 Y   0.0102 Z
    Strength   :     0.0057535656
    D(    3) --> V( 1388) amplitude =  0.5580
    D(    3) --> V( 1398) amplitude =  0.5201
    D(    3) --> V( 1399) amplitude = -0.5021

 Excited state  18: excitation energy (eV) =    1028.1541
 Total energy for state  18:                  -574.04130967 au
    Multiplicity: Singlet
    Trans. Mom.: -0.0006 X  -0.0002 Y  -0.0010 Z
    Strength   :     0.0000343696
    D(    3) --> V( 1389) amplitude =  0.9920

 Excited state  19: excitation energy (eV) =    1028.9376
 Total energy for state  19:                  -574.01251805 au
    Multiplicity: Singlet
    Trans. Mom.:  0.0001 X  -0.0007 Y   0.0010 Z
    Strength   :     0.0000367995
    D(    3) --> V( 1390) amplitude =  0.9811

 Excited state  20: excitation energy (eV) =    1029.1588
 Total energy for state  20:                  -574.00439028 au
    Multiplicity: Singlet
    Trans. Mom.:  0.0009 X   0.0014 Y  -0.0011 Z
    Strength   :     0.0001029349
    D(    3) --> V( 1391) amplitude =  0.9876

 Excited state  21: excitation energy (eV) =    1029.2873
 Total energy for state  21:                  -573.99966748 au
    Multiplicity: Singlet
    Trans. Mom.:  0.0001 X  -0.0005 Y   0.0006 Z
    Strength   :     0.0000156815
    D(    3) --> V( 1392) amplitude =  0.9951

 Excited state  22: excitation energy (eV) =    1029.6524
 Total energy for state  22:                  -573.98624846 au
    Multiplicity: Singlet
    Trans. Mom.:  0.0015 X   0.0019 Y  -0.0001 Z
    Strength   :     0.0001510387
    D(    3) --> V( 1393) amplitude =  0.8537
    D(    3) --> V( 1394) amplitude = -0.4118
    D(    3) --> V( 1398) amplitude = -0.2177

 Excited state  23: excitation energy (eV) =    1029.9557
 Total energy for state  23:                  -573.97510539 au
    Multiplicity: Singlet
    Trans. Mom.: -0.0004 X  -0.0008 Y   0.0005 Z
    Strength   :     0.0000267731
    D(    3) --> V( 1393) amplitude = -0.2435
    D(    3) --> V( 1394) amplitude = -0.3566
    D(    3) --> V( 1395) amplitude =  0.8971

 Excited state  24: excitation energy (eV) =    1029.9652
 Total energy for state  24:                  -573.97475313 au
    Multiplicity: Singlet
    Trans. Mom.: -0.0005 X  -0.0005 Y  -0.0001 Z
    Strength   :     0.0000128930
    D(    3) --> V( 1393) amplitude =  0.3655
    D(    3) --> V( 1394) amplitude =  0.8266
    D(    3) --> V( 1395) amplitude =  0.4251

 Excited state  25: excitation energy (eV) =    1030.2653
 Total energy for state  25:                  -573.96372479 au
    Multiplicity: Singlet
    Trans. Mom.:  0.0016 X  -0.0001 Y   0.0023 Z
    Strength   :     0.0002044707
    D(    3) --> V( 1396) amplitude =  0.9792

 Excited state  26: excitation energy (eV) =    1030.7218
 Total energy for state  26:                  -573.94695169 au
    Multiplicity: Singlet
    Trans. Mom.:  0.0006 X   0.0006 Y   0.0008 Z
    Strength   :     0.0000329102
    D(    3) --> V( 1397) amplitude =  0.9648

 Excited state  27: excitation energy (eV) =    1031.2855
 Total energy for state  27:                  -573.92623623 au
    Multiplicity: Singlet
    Trans. Mom.: -0.0010 X  -0.0008 Y  -0.0012 Z
    Strength   :     0.0000810240
    D(    3) --> V( 1398) amplitude =  0.6445
    D(    3) --> V( 1399) amplitude =  0.7029

 Excited state  28: excitation energy (eV) =    1031.6694
 Total energy for state  28:                  -573.91212664 au
    Multiplicity: Singlet
    Trans. Mom.:  0.0002 X   0.0012 Y  -0.0004 Z
    Strength   :     0.0000436572
    D(    3) --> V( 1407) amplitude = -0.2266
    D(    3) --> V( 1408) amplitude =  0.8832
    D(    3) --> V( 1409) amplitude =  0.2605

 Excited state  29: excitation energy (eV) =    1032.3614
 Total energy for state  29:                  -573.88669653 au
    Multiplicity: Singlet
    Trans. Mom.:  0.0031 X   0.0029 Y   0.0020 Z
    Strength   :     0.0005576447
    D(    3) --> V( 1400) amplitude =  0.6317
    D(    3) --> V( 1402) amplitude = -0.2465
    D(    3) --> V( 1407) amplitude = -0.3011
    D(    3) --> V( 1409) amplitude = -0.5740

 Excited state  30: excitation energy (eV) =    1032.5579
 Total energy for state  30:                  -573.87947628 au
    Multiplicity: Singlet
    Trans. Mom.: -0.0011 X  -0.0005 Y  -0.0015 Z
    Strength   :     0.0000984836
    D(    3) --> V( 1400) amplitude =  0.7499
    D(    3) --> V( 1402) amplitude =  0.2251
    D(    3) --> V( 1407) amplitude =  0.3000
    D(    3) --> V( 1409) amplitude =  0.4055

 Excited state  31: excitation energy (eV) =    1032.8085
 Total energy for state  31:                  -573.87026682 au
    Multiplicity: Singlet
    Trans. Mom.:  0.0002 X   0.0007 Y  -0.0003 Z
    Strength   :     0.0000146409
    D(    3) --> V( 1401) amplitude =  0.9861

 Excited state  32: excitation energy (eV) =    1033.6365
 Total energy for state  32:                  -573.83983767 au
    Multiplicity: Singlet
    Trans. Mom.: -0.0022 X   0.0005 Y  -0.0022 Z
    Strength   :     0.0002521201
    D(    3) --> V( 1402) amplitude =  0.9284
    D(    3) --> V( 1409) amplitude = -0.2913

 Excited state  33: excitation energy (eV) =    1033.8884
 Total energy for state  33:                  -573.83058069 au
    Multiplicity: Singlet
    Trans. Mom.:  0.0000 X   0.0003 Y   0.0020 Z
    Strength   :     0.0000984226
    D(    3) --> V( 1403) amplitude =  0.9660

 Excited state  34: excitation energy (eV) =    1034.1805
 Total energy for state  34:                  -573.81984678 au
    Multiplicity: Singlet
    Trans. Mom.: -0.0004 X  -0.0001 Y   0.0003 Z
    Strength   :     0.0000066847
    D(    3) --> V( 1404) amplitude =  0.9846

 Excited state  35: excitation energy (eV) =    1034.9077
 Total energy for state  35:                  -573.79312106 au
    Multiplicity: Singlet
    Trans. Mom.: -0.0007 X   0.0021 Y   0.0022 Z
    Strength   :     0.0002517904
    D(    3) --> V( 1405) amplitude =  0.9873

 Excited state  36: excitation energy (eV) =    1035.7845
 Total energy for state  36:                  -573.76089897 au
    Multiplicity: Singlet
    Trans. Mom.: -0.0004 X  -0.0005 Y  -0.0004 Z
    Strength   :     0.0000144658
    D(    3) --> V( 1406) amplitude =  0.9619
    D(    3) --> V( 1407) amplitude = -0.2352

 Excited state  37: excitation energy (eV) =    1036.1031
 Total energy for state  37:                  -573.74918947 au
    Multiplicity: Singlet
    Trans. Mom.:  0.0031 X   0.0002 Y   0.0014 Z
    Strength   :     0.0003027571
    D(    3) --> V( 1407) amplitude =  0.8025
    D(    3) --> V( 1408) amplitude =  0.3507
    D(    3) --> V( 1409) amplitude = -0.4626

 Excited state  38: excitation energy (eV) =    1037.3136
 Total energy for state  38:                  -573.70470694 au
    Multiplicity: Singlet
    Trans. Mom.: -0.0025 X   0.0031 Y   0.0027 Z
    Strength   :     0.0005995404
    D(    3) --> V( 1410) amplitude =  0.9942

 Excited state  39: excitation energy (eV) =    1038.5987
 Total energy for state  39:                  -573.65747922 au
    Multiplicity: Singlet
    Trans. Mom.:  0.0019 X  -0.0009 Y   0.0038 Z
    Strength   :     0.0004742033
    D(    3) --> V( 1411) amplitude =  0.9776

 Excited state  40: excitation energy (eV) =    1041.2526
 Total energy for state  40:                  -573.55994896 au
    Multiplicity: Singlet
    Trans. Mom.:  0.0003 X   0.0022 Y  -0.0030 Z
    Strength   :     0.0003584590
    D(    3) --> V( 1412) amplitude = -0.3726
    D(    3) --> V( 1414) amplitude =  0.5068
    D(    3) --> V( 1420) amplitude =  0.5171
    D(    3) --> V( 1421) amplitude =  0.4178

 Excited state  41: excitation energy (eV) =    1041.5224
 Total energy for state  41:                  -573.55003417 au
    Multiplicity: Singlet
    Trans. Mom.:  0.0006 X   0.0009 Y  -0.0001 Z
    Strength   :     0.0000313818
    D(    3) --> V( 1412) amplitude =  0.9072
    D(    3) --> V( 1413) amplitude =  0.2237

 Excited state  42: excitation energy (eV) =    1041.7185
 Total energy for state  42:                  -573.54282829 au
    Multiplicity: Singlet
    Trans. Mom.: -0.0002 X  -0.0000 Y   0.0004 Z
    Strength   :     0.0000040932
    D(    3) --> V( 1413) amplitude =  0.9706

 Excited state  43: excitation energy (eV) =    1042.9531
 Total energy for state  43:                  -573.49745798 au
    Multiplicity: Singlet
    Trans. Mom.: -0.0019 X  -0.0026 Y   0.0010 Z
    Strength   :     0.0002892766
    D(    3) --> V( 1414) amplitude =  0.7858
    D(    3) --> V( 1420) amplitude = -0.3660
    D(    3) --> V( 1421) amplitude = -0.3031

 Excited state  44: excitation energy (eV) =    1043.4055
 Total energy for state  44:                  -573.48083107 au
    Multiplicity: Singlet
    Trans. Mom.:  0.0011 X   0.0010 Y   0.0000 Z
    Strength   :     0.0000572440
    D(    3) --> V( 1414) amplitude = -0.2603
    D(    3) --> V( 1415) amplitude = -0.2776
    D(    3) --> V( 1418) amplitude = -0.2190
    D(    3) --> V( 1430) amplitude =  0.4711
    D(    3) --> V( 1433) amplitude =  0.5892

 Excited state  45: excitation energy (eV) =    1043.9727
 Total energy for state  45:                  -573.45998933 au
    Multiplicity: Singlet
    Trans. Mom.:  0.0002 X   0.0013 Y  -0.0003 Z
    Strength   :     0.0000475783
    D(    3) --> V( 1415) amplitude =  0.9479

 Excited state  46: excitation energy (eV) =    1044.2547
 Total energy for state  46:                  -573.44962663 au
    Multiplicity: Singlet
    Trans. Mom.:  0.0002 X  -0.0001 Y   0.0005 Z
    Strength   :     0.0000071666
    D(    3) --> V( 1416) amplitude =  0.9879

 Excited state  47: excitation energy (eV) =    1044.3287
 Total energy for state  47:                  -573.44690411 au
    Multiplicity: Singlet
    Trans. Mom.:  0.0018 X  -0.0001 Y   0.0009 Z
    Strength   :     0.0001037344
    D(    3) --> V( 1417) amplitude =  0.5155
    D(    3) --> V( 1418) amplitude =  0.7123
    D(    3) --> V( 1430) amplitude =  0.2600

 Excited state  48: excitation energy (eV) =    1044.4248
 Total energy for state  48:                  -573.44337305 au
    Multiplicity: Singlet
    Trans. Mom.: -0.0020 X   0.0011 Y  -0.0012 Z
    Strength   :     0.0001742833
    D(    3) --> V( 1417) amplitude =  0.7785
    D(    3) --> V( 1418) amplitude = -0.3901
    D(    3) --> V( 1437) amplitude =  0.2266

 Excited state  49: excitation energy (eV) =    1044.4910
 Total energy for state  49:                  -573.44094053 au
    Multiplicity: Singlet
    Trans. Mom.: -0.0036 X   0.0022 Y  -0.0016 Z

 Excited state 100: excitation energy (eV) =    1090.7426
 Excited state 101: excitation energy (eV) =    1111.4439
 Excited state 102: excitation energy (eV) =    1114.9123
 Excited state 103: excitation energy (eV) =    1115.3372
 Excited state 104: excitation energy (eV) =    1115.8395
 Excited state 105: excitation energy (eV) =    1116.1801
 Excited state 106: excitation energy (eV) =    1116.2427
 Excited state 107: excitation energy (eV) =    1117.0127
 Excited state 108: excitation energy (eV) =    1117.2759
 Excited state 109: excitation energy (eV) =    1117.3892
 Excited state 110: excitation energy (eV) =    1118.6646
 Excited state 111: excitation energy (eV) =    1118.8366
 Excited state 112: excitation energy (eV) =    1119.0135

                    Orbital Energies (a.u.)
 --------------------------------------------------------------

 Alpha MOs
 -- Occupied --
-19.2078 -19.1424 -19.1380 -19.1376 -19.1363 -19.1227 -19.1208 -19.1077
 -1.0816  -1.0372  -1.0347  -1.0224  -1.0178  -1.0062  -0.9938  -0.9863
 -0.5901  -0.5540  -0.5495  -0.5473  -0.5300  -0.5169  -0.5110  -0.5065
 -0.4811  -0.4278  -0.4170  -0.4143  -0.4028  -0.3966  -0.3874  -0.3784
 -0.3775  -0.3383  -0.3368  -0.3298  -0.3277  -0.3119  -0.3052  -0.2987

                    Cartesian Multipole Moments
 -----------------------------------------------------------------
    Charge (ESU x 10^10)
                 0.0000
    Dipole Moment (Debye)
         X      -2.9299      Y      -7.4164      Z       2.8140
       Tot       8.4561
    Quadrupole Moments (Debye-Ang)
        XX     -68.8557     XY       0.7189     YY     -39.1218
        XZ      -9.6369     YZ       6.9375     ZZ     -59.4760

 Total job time:  241601.64s(wall), 241493.53s(cpu)
        *  Thank you very much for using Q-Chem.  Have a nice day.  *
