 Q-Chem 6.2 (devel), Q-Chem, Inc., Pleasanton, CA (2024)
 Q-Chem 6.2.2 for Intel X86 EM64T Linux

User input:
--------------------------------------------------------------
$molecule
read
$end

$rem
method                    b3lyp
basis                     cc-pv5z
mem_total                 63000
mem_static                8000
thresh                    12
scf_convergence           8
xc_grid                   000075000302
max_scf_cycles            2000
symmetry                  false
sym_ignore                true
scf_guess                 read
mom_start                 1
cis_n_roots               100
cis_triplets              false
rpa                       false
trnss                     true
trtype                    2
n_sol                     99
nto_pairs                 2
gui                       2
print_orbitals            true
state_analysis            true
$end

$solute
5 1234 1235 1236 1237 1238 1239 1240 1241 1242 1243 1244 1245 1246 1247 1248 1249 1250 1251 1252 1253 1254 1255 1256 1257 1258 1259 1260 1261 1262 1263 1264 1265 1266 1267 1268 1269 1270 1271 1272 1273 1274 1275 1276 1277 1278 1279 1280 1281 1282 1283 1284 1285 1286 1287 1288 1289 1290 1291 1292 1293 1294 1295 1296 1297 1298 1299 1300 1301 1302 1303 1304 1305 1306 1307 1308 1309 1310 1311 1312 1313 1314 1315 1316 1317 1318 1319 1320 1321 1322 1323 1324 1325 1326 1327 1328 1329 1330 1331
$end
--------------------------------------------------------------

             Standard Nuclear Orientation (Angstroms)
    I     Atom           X                Y                Z
 ----------------------------------------------------------------
    1      O       0.8673700000     3.8245800000     0.1948500000
    2      O      -0.4763300000     1.4378800000     0.0318500000
    3      H      -1.4367300000     1.5455800000     0.0878500000
    4      H      -0.3213300000     0.4888800000     0.2588500000
    5      H       0.2293700000     4.5095800000     0.3418500000
    6      H       0.2849700000     3.0915800000     0.2518500000
    7      O       0.1456700000   -18.6104200000    -0.2211500000
    8      H      -0.4091300000   -19.3674200000    -0.1321500000
    9      H      -0.0800300000   -18.0930200000    -1.0171500000
   10      O       1.9443700000     2.0615800000    -1.9811500000
   11      H       2.6683700000     2.0055800000    -1.3401500000
   12      H       1.5693700000     2.8585800000    -1.5591500000
   13      O       2.2953700000     2.5135800000     2.2728500000
   14      H       2.9613700000     3.0325800000     2.7688500000
   15      H       1.9963700000     3.0275800000     1.4778500000
   16      O      -1.6253300000     4.9025800000     0.9488500000
   17      H      -2.5216300000     5.3115800000     0.8818500000
   18      H      -1.5917300000     4.2445800000     1.7258500000
   19      O      -2.9795300000     3.7955800000    -1.3521500000
   20      H      -3.6315300000     4.4625800000    -1.4691500000
   21      H      -2.4412300000     4.0665800000    -0.5941500000
 ----------------------------------------------------------------

    2    -535.3220159275      1.05e-09  Convergence criterion met
 Total energy =  -535.32201593

         TDDFT/TDA Excitation Energies
 ---------------------------------------------------

 Excited state   1: excitation energy (eV) =    1016.3329
 Total energy for state   1:                  -497.97246910 au
    Multiplicity: Singlet
    Trans. Mom.: -0.0134 X  -0.0061 Y   0.0035 Z
    Strength   :     0.0056733201
    D(    5) --> V( 1199) amplitude = -0.5690
    D(    5) --> V( 1201) amplitude =  0.7432

 Excited state   2: excitation energy (eV) =    1016.9006
 Total energy for state   2:                  -497.95160640 au
    Multiplicity: Singlet
    Trans. Mom.:  0.0168 X  -0.0157 Y  -0.0024 Z
    Strength   :     0.0133321005
    D(    5) --> V( 1199) amplitude =  0.5698
    D(    5) --> V( 1201) amplitude =  0.4049
    D(    5) --> V( 1203) amplitude = -0.5118
    D(    5) --> V( 1205) amplitude = -0.3307
    D(    5) --> V( 1208) amplitude = -0.3184

 Excited state   3: excitation energy (eV) =    1018.7537
 Total energy for state   3:                  -497.88350931 au
    Multiplicity: Singlet
    Trans. Mom.:  0.0015 X   0.0018 Y   0.0000 Z
    Strength   :     0.0001377784
    D(    5) --> V( 1200) amplitude =  0.9200
    D(    5) --> V( 1201) amplitude = -0.3009

 Excited state   4: excitation energy (eV) =    1019.1772
 Total energy for state   4:                  -497.86794632 au
    Multiplicity: Singlet
    Trans. Mom.: -0.0043 X   0.0071 Y   0.0010 Z
    Strength   :     0.0017390204
    D(    5) --> V( 1199) amplitude =  0.5555
    D(    5) --> V( 1201) amplitude =  0.2566
    D(    5) --> V( 1203) amplitude =  0.7108
    D(    5) --> V( 1204) amplitude = -0.2438

 Excited state   5: excitation energy (eV) =    1019.6829
 Total energy for state   5:                  -497.84935910 au
    Multiplicity: Singlet
    Trans. Mom.: -0.0056 X  -0.0028 Y   0.0019 Z
    Strength   :     0.0010575253
    D(    5) --> V( 1200) amplitude =  0.3201
    D(    5) --> V( 1201) amplitude =  0.3030
    D(    5) --> V( 1204) amplitude =  0.3094
    D(    5) --> V( 1205) amplitude =  0.6391
    D(    5) --> V( 1208) amplitude =  0.3549

 Excited state   6: excitation energy (eV) =    1019.9661
 Total energy for state   6:                  -497.83895365 au
    Multiplicity: Singlet
    Trans. Mom.: -0.0007 X   0.0010 Y  -0.0001 Z
    Strength   :     0.0000359482
    D(    5) --> V( 1202) amplitude =  0.9624

 Excited state   7: excitation energy (eV) =    1020.6131
 Total energy for state   7:                  -497.81517568 au
    Multiplicity: Singlet
    Trans. Mom.: -0.0002 X   0.0008 Y  -0.0003 Z
    Strength   :     0.0000214544
    D(    5) --> V( 1203) amplitude =  0.3470
    D(    5) --> V( 1204) amplitude =  0.8959
    D(    5) --> V( 1205) amplitude = -0.2258

 Excited state   8: excitation energy (eV) =    1021.6014
 Total energy for state   8:                  -497.77885749 au
    Multiplicity: Singlet
    Trans. Mom.: -0.0065 X  -0.0060 Y   0.0024 Z
    Strength   :     0.0020734284
    D(    5) --> V( 1205) amplitude =  0.3940
    D(    5) --> V( 1206) amplitude =  0.8513
    D(    5) --> V( 1208) amplitude = -0.2699

 Excited state   9: excitation energy (eV) =    1022.2221
 Total energy for state   9:                  -497.75604836 au
    Multiplicity: Singlet
    Trans. Mom.:  0.0054 X  -0.0035 Y  -0.0004 Z
    Strength   :     0.0010372293
    D(    5) --> V( 1207) amplitude =  0.8857
    D(    5) --> V( 1209) amplitude =  0.3585

 Excited state  10: excitation energy (eV) =    1022.2977
 Total energy for state  10:                  -497.75326896 au
    Multiplicity: Singlet
    Trans. Mom.:  0.0002 X  -0.0000 Y  -0.0005 Z
    Strength   :     0.0000069745
    D(    5) --> V( 1205) amplitude = -0.3981
    D(    5) --> V( 1206) amplitude =  0.4107
    D(    5) --> V( 1208) amplitude =  0.7668

 Excited state  11: excitation energy (eV) =    1022.7302
 Total energy for state  11:                  -497.73737497 au
    Multiplicity: Singlet
    Trans. Mom.:  0.0150 X   0.0015 Y  -0.0017 Z
    Strength   :     0.0057444615
    D(    5) --> V( 1207) amplitude = -0.4368
    D(    5) --> V( 1209) amplitude =  0.7169
    D(    5) --> V( 1215) amplitude = -0.3791

 Excited state  12: excitation energy (eV) =    1022.9346
 Total energy for state  12:                  -497.72986313 au
    Multiplicity: Singlet
    Trans. Mom.: -0.0027 X  -0.0072 Y  -0.0004 Z
    Strength   :     0.0014986149
    D(    5) --> V( 1205) amplitude =  0.2126
    D(    5) --> V( 1206) amplitude = -0.2438
    D(    5) --> V( 1209) amplitude =  0.4338
    D(    5) --> V( 1214) amplitude = -0.5357
    D(    5) --> V( 1215) amplitude =  0.5419

 Excited state  13: excitation energy (eV) =    1024.2316
 Total energy for state  13:                  -497.68219725 au
    Multiplicity: Singlet
    Trans. Mom.:  0.0006 X   0.0001 Y  -0.0004 Z
    Strength   :     0.0000138082
    D(    5) --> V( 1210) amplitude =  0.9695

 Excited state  14: excitation energy (eV) =    1024.8344
 Total energy for state  14:                  -497.66004617 au
    Multiplicity: Singlet
    Trans. Mom.: -0.0054 X   0.0020 Y  -0.0001 Z
    Strength   :     0.0008321593
    D(    5) --> V( 1211) amplitude =  0.9749

 Excited state  15: excitation energy (eV) =    1025.3655
 Total energy for state  15:                  -497.64052715 au
    Multiplicity: Singlet
    Trans. Mom.:  0.0162 X  -0.0104 Y  -0.0005 Z
    Strength   :     0.0092870088
    D(    5) --> V( 1212) amplitude =  0.2598
    D(    5) --> V( 1214) amplitude = -0.3150
    D(    5) --> V( 1215) amplitude = -0.3442
    D(    5) --> V( 1217) amplitude =  0.6214
    D(    5) --> V( 1219) amplitude =  0.4182

 Excited state  16: excitation energy (eV) =    1026.0914
 Total energy for state  16:                  -497.61385402 au
    Multiplicity: Singlet
    Trans. Mom.: -0.0035 X   0.0042 Y   0.0003 Z
    Strength   :     0.0007607508
    D(    5) --> V( 1212) amplitude =  0.9276
    D(    5) --> V( 1219) amplitude = -0.2766

 Excited state  17: excitation energy (eV) =    1026.2421
 Total energy for state  17:                  -497.60831558 au
    Multiplicity: Singlet
    Trans. Mom.: -0.0004 X  -0.0073 Y   0.0019 Z
    Strength   :     0.0014329826
    D(    5) --> V( 1212) amplitude =  0.2511
    D(    5) --> V( 1214) amplitude =  0.4393
    D(    5) --> V( 1217) amplitude = -0.2344
    D(    5) --> V( 1219) amplitude =  0.6133
    D(    5) --> V( 1223) amplitude = -0.3703

 Excited state  18: excitation energy (eV) =    1027.2421
 Total energy for state  18:                  -497.57156562 au
    Multiplicity: Singlet
    Trans. Mom.: -0.0005 X   0.0020 Y   0.0009 Z
    Strength   :     0.0001312458
    D(    5) --> V( 1214) amplitude =  0.3770
    D(    5) --> V( 1215) amplitude =  0.4435
    D(    5) --> V( 1216) amplitude =  0.2241
    D(    5) --> V( 1217) amplitude =  0.4824
    D(    5) --> V( 1221) amplitude =  0.2795
    D(    5) --> V( 1224) amplitude = -0.4491
    D(    5) --> V( 1227) amplitude =  0.2199

 Excited state  19: excitation energy (eV) =    1027.2431
 Total energy for state  19:                  -497.57152683 au
    Multiplicity: Singlet
    Trans. Mom.:  0.0000 X  -0.0000 Y   0.0000 Z
    Strength   :     0.0000000000
    D(    5) --> V( 1213) amplitude =  1.0000

 Excited state  20: excitation energy (eV) =    1027.5653
 Total energy for state  20:                  -497.55968900 au
    Multiplicity: Singlet
    Trans. Mom.: -0.0008 X   0.0016 Y   0.0017 Z
    Strength   :     0.0001537314
    D(    5) --> V( 1214) amplitude = -0.3242
    D(    5) --> V( 1216) amplitude =  0.8820

 Excited state  21: excitation energy (eV) =    1028.2923
 Total energy for state  21:                  -497.53297248 au
    Multiplicity: Singlet
    Trans. Mom.:  0.0039 X  -0.0010 Y  -0.0021 Z
    Strength   :     0.0005213209
    D(    5) --> V( 1214) amplitude =  0.2200
    D(    5) --> V( 1215) amplitude =  0.2991
    D(    5) --> V( 1216) amplitude =  0.3041
    D(    5) --> V( 1217) amplitude =  0.3762
    D(    5) --> V( 1221) amplitude = -0.4223
    D(    5) --> V( 1224) amplitude =  0.5559
    D(    5) --> V( 1227) amplitude = -0.2262

 Excited state  22: excitation energy (eV) =    1028.9334
 Total energy for state  22:                  -497.50941060 au
    Multiplicity: Singlet
    Trans. Mom.: -0.0002 X  -0.0003 Y   0.0014 Z
    Strength   :     0.0000521512
    D(    5) --> V( 1218) amplitude =  0.9674

 Excited state  23: excitation energy (eV) =    1029.8071
 Total energy for state  23:                  -497.47730435 au
    Multiplicity: Singlet
    Trans. Mom.: -0.0035 X  -0.0070 Y   0.0002 Z
    Strength   :     0.0015556275
    D(    5) --> V( 1219) amplitude =  0.4275
    D(    5) --> V( 1222) amplitude = -0.2920
    D(    5) --> V( 1223) amplitude =  0.7356
    D(    5) --> V( 1224) amplitude = -0.2413

 Excited state  24: excitation energy (eV) =    1030.0811
 Total energy for state  24:                  -497.46723359 au
    Multiplicity: Singlet
    Trans. Mom.: -0.0013 X   0.0020 Y   0.0001 Z
    Strength   :     0.0001439804
    D(    5) --> V( 1220) amplitude =  0.9555

 Excited state  25: excitation energy (eV) =    1030.5286
 Total energy for state  25:                  -497.45078742 au
    Multiplicity: Singlet
    Trans. Mom.:  0.0015 X  -0.0010 Y  -0.0004 Z
    Strength   :     0.0000843714
    D(    5) --> V( 1221) amplitude =  0.3276
    D(    5) --> V( 1222) amplitude =  0.8363
    D(    5) --> V( 1223) amplitude =  0.3947

 Excited state  26: excitation energy (eV) =    1030.6464
 Total energy for state  26:                  -497.44645849 au
    Multiplicity: Singlet
    Trans. Mom.: -0.0020 X   0.0018 Y  -0.0002 Z
    Strength   :     0.0001820799
    D(    5) --> V( 1221) amplitude =  0.7718
    D(    5) --> V( 1222) amplitude = -0.3803
    D(    5) --> V( 1224) amplitude =  0.4449

 Excited state  27: excitation energy (eV) =    1032.5350
 Total energy for state  27:                  -497.37705289 au
    Multiplicity: Singlet
    Trans. Mom.: -0.0007 X   0.0021 Y   0.0003 Z
    Strength   :     0.0001278457
    D(    5) --> V( 1224) amplitude =  0.2253
    D(    5) --> V( 1225) amplitude =  0.9630

 Excited state  28: excitation energy (eV) =    1033.4822
 Total energy for state  28:                  -497.34224676 au
    Multiplicity: Singlet
    Trans. Mom.: -0.0026 X  -0.0013 Y  -0.0002 Z
    Strength   :     0.0002143048
    D(    5) --> V( 1226) amplitude =  0.9740

 Excited state  29: excitation energy (eV) =    1033.6215
 Total energy for state  29:                  -497.33712518 au
    Multiplicity: Singlet
    Trans. Mom.:  0.0005 X   0.0027 Y   0.0004 Z
    Strength   :     0.0001900216
    D(    5) --> V( 1224) amplitude =  0.3172
    D(    5) --> V( 1227) amplitude =  0.9065

 Excited state  30: excitation energy (eV) =    1035.1245
 Total energy for state  30:                  -497.28189151 au
    Multiplicity: Singlet
    Trans. Mom.:  0.0011 X  -0.0030 Y  -0.0003 Z
    Strength   :     0.0002579967
    D(    5) --> V( 1228) amplitude =  0.9549
    D(    5) --> V( 1234) amplitude = -0.2255

 Excited state  31: excitation energy (eV) =    1035.3495
 Total energy for state  31:                  -497.27362309 au
    Multiplicity: Singlet
    Trans. Mom.: -0.0017 X  -0.0112 Y   0.0001 Z
    Strength   :     0.0032377035
    D(    5) --> V( 1233) amplitude =  0.7523
    D(    5) --> V( 1234) amplitude =  0.5023
    D(    5) --> V( 1235) amplitude = -0.3327

 Excited state  32: excitation energy (eV) =    1035.7222
 Total energy for state  32:                  -497.25992748 au
    Multiplicity: Singlet
    Trans. Mom.:  0.0034 X   0.0143 Y  -0.0002 Z
    Strength   :     0.0054991371
    D(    5) --> V( 1233) amplitude = -0.5602
    D(    5) --> V( 1234) amplitude =  0.7487

 Excited state  33: excitation energy (eV) =    1036.2327
 Total energy for state  33:                  -497.24116806 au
    Multiplicity: Singlet
    Trans. Mom.: -0.0000 X  -0.0000 Y   0.0000 Z
    Strength   :     0.0000000000
    D(    5) --> V( 1229) amplitude =  1.0000

 Excited state  34: excitation energy (eV) =    1036.3928
 Total energy for state  34:                  -497.23528344 au
    Multiplicity: Singlet
    Trans. Mom.: -0.0000 X  -0.0000 Y   0.0000 Z
    Strength   :     0.0000000000
    D(    5) --> V( 1230) amplitude =  1.0000

 Excited state  35: excitation energy (eV) =    1036.7694
 Total energy for state  35:                  -497.22144164 au
    Multiplicity: Singlet
    Trans. Mom.:  0.0004 X   0.0014 Y  -0.0001 Z
    Strength   :     0.0000546339
    D(    5) --> V( 1231) amplitude =  0.9939

 Excited state  36: excitation energy (eV) =    1037.2963
 Total energy for state  36:                  -497.20207826 au
    Multiplicity: Singlet
    Trans. Mom.:  0.0004 X   0.0011 Y  -0.0002 Z
    Strength   :     0.0000362943
    D(    5) --> V( 1232) amplitude =  0.9868

 Excited state  37: excitation energy (eV) =    1040.5212
 Total energy for state  37:                  -497.08356748 au
    Multiplicity: Singlet
    Trans. Mom.:  0.0000 X  -0.0005 Y   0.0002 Z
    Strength   :     0.0000081963
    D(    5) --> V( 1234) amplitude =  0.3510
    D(    5) --> V( 1235) amplitude =  0.9108

 Excited state  38: excitation energy (eV) =    1040.8070
 Total energy for state  38:                  -497.07306544 au
    Multiplicity: Singlet
    Trans. Mom.: -0.0060 X   0.0087 Y   0.0007 Z
    Strength   :     0.0028647478
    D(    5) --> V( 1236) amplitude = -0.4921
    D(    5) --> V( 1237) amplitude =  0.7264
    D(    5) --> V( 1238) amplitude =  0.2294
    D(    5) --> V( 1248) amplitude =  0.2167

 Excited state  39: excitation energy (eV) =    1041.9963
 Total energy for state  39:                  -497.02935705 au
    Multiplicity: Singlet
    Trans. Mom.: -0.0024 X   0.0029 Y   0.0013 Z
    Strength   :     0.0004003930
    D(    5) --> V( 1236) amplitude =  0.8640
    D(    5) --> V( 1237) amplitude =  0.4589

 Excited state  40: excitation energy (eV) =    1043.2301
 Total energy for state  40:                  -496.98401821 au
    Multiplicity: Singlet
    Trans. Mom.: -0.0000 X  -0.0001 Y   0.0011 Z
    Strength   :     0.0000285911
    D(    5) --> V( 1237) amplitude = -0.3084
    D(    5) --> V( 1238) amplitude =  0.9497

 Excited state  41: excitation energy (eV) =    1044.0453
 Total energy for state  41:                  -496.95406033 au
    Multiplicity: Singlet
    Trans. Mom.: -0.0009 X  -0.0005 Y   0.0009 Z
    Strength   :     0.0000488110
    D(    5) --> V( 1239) amplitude =  0.9923

 Excited state  42: excitation energy (eV) =    1044.5691
 Total energy for state  42:                  -496.93481064 au
    Multiplicity: Singlet
    Trans. Mom.: -0.0004 X   0.0031 Y  -0.0002 Z
    Strength   :     0.0002576602
    D(    5) --> V( 1240) amplitude =  0.9855

 Excited state  43: excitation energy (eV) =    1044.9238
 Total energy for state  43:                  -496.92177637 au
    Multiplicity: Singlet
    Trans. Mom.:  0.0009 X  -0.0020 Y   0.0001 Z
    Strength   :     0.0001231933
    D(    5) --> V( 1241) amplitude =  0.9531

 Excited state  44: excitation energy (eV) =    1045.1154
 Total energy for state  44:                  -496.91473357 au
    Multiplicity: Singlet
    Trans. Mom.: -0.0028 X   0.0015 Y   0.0007 Z
    Strength   :     0.0002630713
    D(    5) --> V( 1242) amplitude =  0.9474

 Excited state  45: excitation energy (eV) =    1045.3924
 Total energy for state  45:                  -496.90455216 au
    Multiplicity: Singlet
    Trans. Mom.: -0.0050 X   0.0057 Y  -0.0019 Z
    Strength   :     0.0015727578
    D(    5) --> V( 1237) amplitude = -0.2961
    D(    5) --> V( 1241) amplitude =  0.2286
    D(    5) --> V( 1242) amplitude = -0.3082
    D(    5) --> V( 1244) amplitude =  0.5296
    D(    5) --> V( 1246) amplitude =  0.3785
    D(    5) --> V( 1248) amplitude =  0.4801

 Excited state  46: excitation energy (eV) =    1046.1950
 Total energy for state  46:                  -496.87506038 au
    Multiplicity: Singlet
    Trans. Mom.:  0.0014 X  -0.0021 Y   0.0005 Z
    Strength   :     0.0001722457
    D(    5) --> V( 1244) amplitude =  0.8092
    D(    5) --> V( 1246) amplitude = -0.4010
    D(    5) --> V( 1248) amplitude = -0.3747

 Excited state  47: excitation energy (eV) =    1046.2136
 Total energy for state  47:                  -496.87437479 au

                    Orbital Energies (a.u.)
 --------------------------------------------------------------

 Alpha MOs
 -- Occupied --
-19.1976 -19.1544 -19.1313 -19.1293 -19.1276 -19.1030 -19.0975  -1.0646
 -1.0390  -1.0277  -1.0229  -1.0147  -0.9829  -0.9762  -0.5961  -0.5543
 -0.5503  -0.5485  -0.5409  -0.5095  -0.4732  -0.4601  -0.4266  -0.4095
 -0.4058  -0.3849  -0.3806  -0.3721  -0.3612  -0.3429  -0.3267  -0.3251
 -0.3206  -0.2927  -0.2851

                    Cartesian Multipole Moments
 -----------------------------------------------------------------
    Charge (ESU x 10^10)
                -0.0000
    Dipole Moment (Debye)
         X      -5.9623      Y       2.2990      Z       3.0191
       Tot       7.0675
    Quadrupole Moments (Debye-Ang)
        XX     -36.3025     XY       7.3399     YY      -6.0446
        XZ      -1.5468     YZ      32.9063     ZZ     -55.2510

 Total job time:  127884.41s(wall), 252168.57s(cpu)
        *  Thank you very much for using Q-Chem.  Have a nice day.  *
