 Q-Chem 6.2 (devel), Q-Chem, Inc., Pleasanton, CA (2024)
 Q-Chem 6.2.2 for Intel X86 EM64T Linux

User input:
--------------------------------------------------------------
$molecule
0 1
O 0.78956 0.03727 0.80554
H 0.22173 -0.72113 0.89154
H 0.56853 0.38694 -0.06056
O -3.08844 -1.31773 -0.66346
H -2.24274 -1.71473 -0.48906
H -3.63794 -1.75853 -0.00746
O -1.01434 -2.54353 0.65554
H -0.19194 -3.09913 0.53154
H -1.37074 -2.92453 1.48454
O -2.48324 1.32341 -0.44366
H -3.14164 0.59402 -0.32926
H -2.08214 1.38290 0.44354
O -1.19474 1.84836 2.19554
H -1.16424 2.68627 2.66954
H -0.29014 1.60051 1.93154
O 3.69956 -0.93153 1.48454
H 2.89506 -0.47753 1.29054
H 3.53776 -1.75293 0.94254
O 3.36066 0.94113 -2.26146
H 4.04446 0.44521 -1.76726
H 2.54036 0.39352 -2.23506
O 0.00709 0.89662 -1.86126
H -0.01184 0.08237 -2.39536
H -0.88314 0.84558 -1.49376
$end

$rem
method                    b3lyp
basis                     cc-pv5z
mem_total                 48000
mem_static                8000
thresh                    12
scf_convergence           8
xc_grid                   000075000302
max_scf_cycles            2000
symmetry                  false
sym_ignore                true
print_orbitals true
$end
gui                       2
molden_format true
--------------------------------------------------------------

             Standard Nuclear Orientation (Angstroms)
    I     Atom           X                Y                Z
 ----------------------------------------------------------------
    1      O       0.7895600000     0.0372700000     0.8055400000
    2      H       0.2217300000    -0.7211300000     0.8915400000
    3      H       0.5685300000     0.3869400000    -0.0605600000
    4      O      -3.0884400000    -1.3177300000    -0.6634600000
    5      H      -2.2427400000    -1.7147300000    -0.4890600000
    6      H      -3.6379400000    -1.7585300000    -0.0074600000
    7      O      -1.0143400000    -2.5435300000     0.6555400000
    8      H      -0.1919400000    -3.0991300000     0.5315400000
    9      H      -1.3707400000    -2.9245300000     1.4845400000
   10      O      -2.4832400000     1.3234100000    -0.4436600000
   11      H      -3.1416400000     0.5940200000    -0.3292600000
   12      H      -2.0821400000     1.3829000000     0.4435400000
   13      O      -1.1947400000     1.8483600000     2.1955400000
   14      H      -1.1642400000     2.6862700000     2.6695400000
   15      H      -0.2901400000     1.6005100000     1.9315400000
   16      O       3.6995600000    -0.9315300000     1.4845400000
   17      H       2.8950600000    -0.4775300000     1.2905400000
   18      H       3.5377600000    -1.7529300000     0.9425400000
   19      O       3.3606600000     0.9411300000    -2.2614600000
   20      H       4.0444600000     0.4452100000    -1.7672600000
   21      H       2.5403600000     0.3935200000    -2.2350600000
   22      O       0.0070900000     0.8966200000    -1.8612600000
   23      H      -0.0118400000     0.0823700000    -2.3953600000
   24      H      -0.8831400000     0.8455800000    -1.4937600000
 ----------------------------------------------------------------

   11    -611.8252776476      8.34e-09  Convergence criterion met
 Total energy =  -611.82527765

                    Orbital Energies (a.u.)
 --------------------------------------------------------------

 Alpha MOs
 -- Occupied --
-19.2078 -19.1424 -19.1380 -19.1376 -19.1363 -19.1227 -19.1208 -19.1077
 -1.0816  -1.0372  -1.0347  -1.0224  -1.0178  -1.0062  -0.9938  -0.9863
 -0.5901  -0.5540  -0.5495  -0.5473  -0.5300  -0.5169  -0.5110  -0.5065
 -0.4811  -0.4278  -0.4170  -0.4143  -0.4028  -0.3966  -0.3874  -0.3784
 -0.3775  -0.3383  -0.3368  -0.3298  -0.3277  -0.3119  -0.3052  -0.2987

          Ground-State Mulliken Net Atomic Charges

     Atom                 Charge (a.u.)
  ----------------------------------------
      1 O                    -0.798585
      2 H                     0.345760
      3 H                     0.400148
      4 O                    -0.675586
      5 H                     0.379909
      6 H                     0.301560
      7 O                    -0.643364
      8 H                     0.338362
      9 H                     0.338833
     10 O                    -0.730663
     11 H                     0.367892
     12 H                     0.365073
     13 O                    -0.656361
     14 H                     0.307088
     15 H                     0.355670
     16 O                    -0.630963
     17 H                     0.370669
     18 H                     0.255303
     19 O                    -0.598028
     20 H                     0.287297
     21 H                     0.305360
     22 O                    -0.668248
     23 H                     0.298034
     24 H                     0.384837
  ----------------------------------------
  Sum of atomic charges =     0.000000

                    Cartesian Multipole Moments
 -----------------------------------------------------------------
    Charge (ESU x 10^10)
                 0.0000
    Dipole Moment (Debye)
         X      -2.9299      Y      -7.4164      Z       2.8140
       Tot       8.4561
    Quadrupole Moments (Debye-Ang)
        XX     -68.8557     XY       0.7190     YY     -39.1218
        XZ      -9.6369     YZ       6.9376     ZZ     -59.4760

 Total job time:  8379.13s(wall), 264316.15s(cpu)
        *  Thank you very much for using Q-Chem.  Have a nice day.  *
