 Q-Chem 6.2 (devel), Q-Chem, Inc., Pleasanton, CA (2024)
 Q-Chem 6.2.2 for Intel X86 EM64T Linux

User input:
--------------------------------------------------------------
$molecule
   0 1
   O   0.0000   0.0000   0.1168
   H   0.0000   0.7629  -0.4672
   H   0.0000  -0.7629  -0.4672
$end

$rem
   METHOD       B3LYP
   BASIS        cc-pv5z
   SYMMETRY     false
   SYM_IGNORE   true
$end

--------------------------------------------------------------

    6     -76.4733593452      5.98e-06  Convergence criterion met
 Total energy =   -76.47335935
 Total job time:  17.55s(wall), 365.04s(cpu)
        *  Thank you very much for using Q-Chem.  Have a nice day.  *

User input: 2 of 2

                  Welcome to Q-Chem
     A Quantum Leap Into The Future Of Chemistry

 Q-Chem 6.2 (devel), Q-Chem, Inc., Pleasanton, CA (2024)

 E. Epifanovsky,  A. T. B. Gilbert,  Xintian Feng,  Joonho Lee,  Yuezhi Mao,
 N. Mardirossian,  P. Pokhilko,  A. White,  M. Wormit,  M. P. Coons,
 A. L. Dempwolff,  Zhengting Gan,  D. Hait,  P. R. Horn,  L. D. Jacobson,
 I. Kaliman,  J. Kussmann,  A. W. Lange,  Ka Un Lao,  D. S. Levine,  Jie Liu,
 S. C. McKenzie,  A. F. Morrison,  K. D. Nanda,  F. Plasser,  D. R. Rehn,
 M. L. Vidal,  Zhi-Qiang You,  Ying Zhu,  Huseyin Aksu,  B. Alam,
 B. Albrecht,  A. Aldossary,  E. Alguire,  J. H. Andersen,
 J. E. Arias-Martinez,  V. Athavale,  D. Barton,  K. Begam,  A. Behn,
 N. Bellonzi,  Y. A. Bernard,  E. J. Berquist,  H. Burton,  A. Carreras,
 K. Carter-Fenk,  Mathew Chow,  Romit Chakraborty,  Chandrima Chakravarty,
 Junhan Chen,  A. D. Chien,  K. D. Closser,  V. Cofer-Shabica,  L. Cunha,
 S. Dasgupta,  Jia Deng,  Joseph Dickinson,  M. de Wergifosse,
 M. Diedenhofen,  Hainam Do,  Wenjie Dou,  S. Ehlert,  Po-Tung Fang,
 S. Fatehi,  Qingguo Feng,  Jonathan Fetherolf,  T. Friedhoff,
 Thomas Froitzheim,  Sarai Folkestad,  B. Ganoe,  J. Gayvert,  Qinghui Ge,
 G. Gidofalvi,  M. Gimferrer,  M. Goldey,  Montgomery Gray,  J. Gomes,
 C. Gonzalez-Espinoza,  S. Gulania,  A. Gunina,  J. A. Gyamfi,
 M. W. D. Hanson-Heine,  P. H. P. Harbach,  A. W. Hauser,  M. F. Herbst,
 M. Hernandez Vera,  M. Hodecker,  Z. C. Holden,  S. Houck,  Xunkun Huang,
 Kerwin Hui,  B. C. Huynh,  K. Ikeda,  M. Ivanov,  Nayanthara K. Jayadev,
 Hyunjun Ji,  Zuxin Jin,  Hanjie Jiang,  Subrata Jana,  B. Kaduk,
 S. Kaehler,  R. Kang,  K. Khistyaev,  Jaehoon Kim,  Yongbin Kim,
 P. Klunzinger,  Z. Koczor-Benda,  Joong Hoon Koh,  D. Kosenkov,
 Saikiran Kotaru,  L. Koulias,  T. Kowalczyk,  C. M. Krauter,  K. Kue,
 A. Kunitsa,  T. Kus,  A. Landau,  K. V. Lawler,  D. Lefrancois,  S. Lehtola,
 Rain Li,  Shaozhi Li,  Tao E. Li,  Yi-Pei Li,  Jiashu Liang,  M. Liebenthal,
 Hung-Hsuan Lin,  You-Sheng Lin,  Fenglai Liu,  Kuan-Yu Liu,  Xiao Liu,
 M. Loipersberger,  A. Luenser,  C. Malbon,  Aniket Mandal,  Manisha,
 A. Manjanath,  P. Manohar,  E. Mansoor,  S. F. Manzer,  Shan-Ping Mao,
 A. V. Marenich,  T. Markovich,  S. Mason,  F. Matz,  S. A. Maurer,
 Samuel May,  Alexandra McIsaac,  P. F. McLaughlin,  M. F. S. J. Menger,
 J.-M. Mewes,  S. A. Mewes,  P. Morgante,  Mohammad Mostafanejad,
 Madhubani Mukherjee,  J. W. Mullinax,  Quyen Nguyen,  Avik Kumar Ojha,
 K. J. Oosterbaan,  Eno Paenurk,  Xiaoliang Pan,  G. Paran,  V. Parravicini,
 Alexander C. Paul,  Suranjan K. Paul,  F. Pavosevic,  Zheng Pei,  S. Prager,
 E. I. Proynov,  E. Ramos,  B. Rana,  A. E. Rask,  A. Rettig,  R. M. Richard,
 F. Rob,  E. Rossomme,  T. Scheele,  M. Scheurer,  M. Schneider,
 P. E. Schneider,  Tim K. Schramm,  N. Sergueev,  S. M. Sharada,
 Hengyuan Shen,  W. Skomorowski,  D. W. Small,  C. J. Stein,
 Alistair J. Sterling,  Yingli Su,  Yu-Chuan Su,  E. J. Sundstrom,
 J. Talbot,  Zhen Tao,  J. Thirman,  Hung-Yi Tsai,  T. Tsuchimochi,
 N. M. Tubman,  C. Utku,  S. P. Veccham,  O. Vydrov,  Rahel Weiss,
 J. Wenzel,  Jonathan Wong,  J. Witte,  H. Wu,  Yanze Wu,  A. Yamada,
 Chou-Hsun Yang,  Kun Yao,  S. Yeganeh,  S. R. Yost,  Qi Yu,  A. Zech,
 F. Zeller,  Chongxiao Zhao,  Igor Ying Zhang,  Xing Zhang,  Yu Zhang,
 D. Zuev,  A. Aspuru-Guzik,  A. T. Bell,  N. A. Besley,  K. B. Bravaya,
 B. R. Brooks,  D. Casanova,  Jeng-Da Chai,  Hsing-Ta Chen,  S. Coriani,
 C. J. Cramer,  A. E. DePrince, III,  R. A. DiStasio Jr.,  A. Dreuw,
 B. D. Dunietz,  T. R. Furlani,  W. A. Goddard III,  S. Grimme,
 S. Hammes-Schiffer,  T. Head-Gordon,  W. J. Hehre,  Chao-Ping Hsu,
 T.-C. Jagau,  Yousung Jung,  A. Klamt,  Jing Kong,  D. S. Lambrecht,
 Xiangyuan Li,  WanZhen Liang,  N. J. Mayhall,  C. W. McCurdy,  J. B. Neaton,
 T. Neudecker,  C. Ochsenfeld,  J. A. Parkhill,  R. Peverati,
 V. A. Rassolov,  Haisheng Ren,  Yihan Shao,  L. V. Slipchenko,
 R. P. Steele,  J. E. Subotnik,  A. J. W. Thom,  A. Tkatchenko,
 D. G. Truhlar,  T. Van Voorhis,  Fan Wang,  T. A. Wesolowski,  K. B. Whaley,
 H. L. Woodcock III,  P. M. Zimmerman,  S. Faraji,  P. M. W. Gill,
 M. Head-Gordon,  J. M. Herbert,  A. I. Krylov

 Contributors to earlier versions of Q-Chem not listed above:
 R. D. Adamson,  B. Austin,  R. Baer,  J. Baker,  G. J. O. Beran,
 K. Brandhorst,  S. T. Brown,  E. F. C. Byrd,  Arup K. Chakraborty,
 G. K. L. Chan,  Chun-Min Chang,  Yunqing Chen,  C.-L. Cheng,
 Siu Hung Chien,  D. M. Chipman,  D. L. Crittenden,  H. Dachsel,
 R. J. Doerksen,  A. D. Dutoi,  R. G. Edgar,  J. Fosso-Tande,
 L. Fusti-Molnar,  D. Ghosh,  A. Ghysels,  A. Golubeva-Zadorozhnaya,
 J. Gonthier,  M. S. Gordon,  S. R. Gwaltney,  G. Hawkins,  J. E. Herr,
 A. Heyden,  S. Hirata,  E. G. Hohenstein,  G. Kedziora,  F. J. Keil,
 C. Kelley,  Jihan Kim,  R. A. King,  R. Z. Khaliullin,  P. P. Korambath,
 W. Kurlancheek,  A. Laurent,  A. M. Lee,  M. S. Lee,  S. V. Levchenko,
 Ching Yeh Lin,  D. Liotard,  E. Livshits,  R. C. Lochan,  I. Lotan,
 L. A. Martinez-Martinez,  P. E. Maslen,  N. Nair,  D. P. O'Neill,
 D. Neuhauser,  E. Neuscamman,  C. M. Oana,  R. Olivares-Amaya,  R. Olson,
 T. M. Perrine,  B. Peters,  P. A. Pieniazek,  A. Prociuk,  Y. M. Rhee,
 J. Ritchie,  M. A. Rohrdanz,  E. Rosta,  N. J. Russ,  H. F. Schaefer III,
 M. W. Schmidt,  N. E. Schultz,  S. Sharma,  N. Shenvi,  C. D. Sherrill,
 A. C. Simmonett,  A. Sodt,  T. Stein,  D. Stuck,  K. S. Thanthiriwatte,
 V. Vanovschi,  L. Vogt,  Tao Wang,  A. Warshel,  M. A. Watson,
 C. F. Williams,  Q. Wu,  X. Xu,  Jun Yang,  W. Zhang,  Yan Zhao

   Please cite Q-Chem as follows:
  "Software for the frontiers of quantum chemistry:
   An overview of developments in the Q-Chem 5 package"
   J. Chem. Phys. 155, 084801 (2021)
   https://doi.org/10.1063/5.0055522 (open access)

 Q-Chem 6.2.2 for Intel X86 EM64T Linux

 Parts of Q-Chem use Armadillo 9.900.5 (Nocturnal Misbehaviour).
 http://arma.sourceforge.net/

 Q-Chem begins on Wed Dec 11 18:18:21 2024

 Host: compute-0-13.local
0

     Scratch files written to /scratch/keith/1h2o_b3lyp_cc-pvtz//
 Processing $rem in /home/keith/software/qchem/qchem_622/config/preferences:
 Processing $rem in /home/keith/.qchemrc:

 Checking the input file for inconsistencies... 	...done.

--------------------------------------------------------------
User input:
--------------------------------------------------------------

$molecule
   read
$end

$rem
   METHOD            B3LYP
   BASIS             cc-pv5z
   SCF_GUESS         read
   MOM_START         1
   UNRESTRICTED      true
   SYMMETRY          false
   SYMMETRY_IGNORE   true
   CIS_N_ROOTS       1000
   TRNSS             true  ! use truncated subspace for TDDFT
   TRTYPE            3     ! specify occupied orbitals
   N_SOL             1     ! number core holes, specified in $solute section
   nto_pairs         3
   molden_format     true
   print_orbitals    true
   gui               2
   plots             true
   make_cube_files   true
$end
   CORE_IONIZE       1
   state_analysis    true

$solute
   1
$end

$plots
  natural_transition_orbital 353-390
$end
--------------------------------------------------------------

             Standard Nuclear Orientation (Angstroms)
    I     Atom           X                Y                Z
 ----------------------------------------------------------------
    1      O       0.0000000000     0.0000000000     0.1168000000
    2      H       0.0000000000     0.7629000000    -0.4672000000
    3      H       0.0000000000    -0.7629000000    -0.4672000000
 ----------------------------------------------------------------

    3     -76.4733594768      7.07e-09  Convergence criterion met
 Total energy =   -76.47335948

         TDDFT/TDA Excitation Energies
 ---------------------------------------------------

 Excited state   1: excitation energy (eV) =     518.2335
 Total energy for state   1:                   -57.42862806 au
    <S**2>     :  2.0000
    Trans. Mom.:  0.0000 X   0.0000 Y   0.0000 Z
    Strength   :     0.0000000000
    D(    1) --> V(    1) amplitude = -0.6954 alpha
    D(    1) --> V(    1) amplitude =  0.6954 beta

 Excited state   2: excitation energy (eV) =     518.8987
 Total energy for state   2:                   -57.40418279 au
    <S**2>     :  0.0000
    Trans. Mom.:  0.0000 X   0.0000 Y   0.0271 Z
    Strength   :     0.0093234587
    D(    1) --> V(    1) amplitude =  0.7045 alpha
    D(    1) --> V(    1) amplitude =  0.7045 beta

 Excited state   3: excitation energy (eV) =     520.0065
 Total energy for state   3:                   -57.36347148 au
    <S**2>     :  2.0000
    Trans. Mom.:  0.0000 X   0.0000 Y   0.0000 Z
    Strength   :     0.0000000000
    D(    1) --> V(    2) amplitude =  0.6849 alpha
    D(    1) --> V(    2) amplitude =  0.6849 beta

 Excited state   4: excitation energy (eV) =     520.5503
 Total energy for state   4:                   -57.34348970 au
    <S**2>     :  0.0000
    Trans. Mom.:  0.0000 X  -0.0411 Y  -0.0000 Z
    Strength   :     0.0215473471
    D(    1) --> V(    2) amplitude =  0.6992 alpha
    D(    1) --> V(    2) amplitude = -0.6992 beta

 Excited state   5: excitation energy (eV) =     524.1254
 Total energy for state   5:                   -57.21210628 au
    <S**2>     :  2.0000
    Trans. Mom.:  0.0000 X   0.0000 Y  -0.0000 Z
    Strength   :     0.0000000000
    D(    1) --> V(    3) amplitude = -0.6544 alpha
    D(    1) --> V(    6) amplitude =  0.2546 alpha
    D(    1) --> V(    3) amplitude =  0.6544 beta
    D(    1) --> V(    6) amplitude = -0.2546 beta

 Excited state   6: excitation energy (eV) =     524.5644
 Total energy for state   6:                   -57.19597455 au
    <S**2>     : -0.0000
    Trans. Mom.: -0.0000 X   0.0000 Y  -0.0297 Z
    Strength   :     0.0113559145
    D(    1) --> V(    3) amplitude =  0.6926 alpha
    D(    1) --> V(    3) amplitude =  0.6926 beta

 Excited state   7: excitation energy (eV) =     524.6459
 Total energy for state   7:                   -57.19297914 au
    <S**2>     :  2.0000
    Trans. Mom.: -0.0000 X  -0.0000 Y  -0.0000 Z
    Strength   :     0.0000000000
    D(    1) --> V(    5) amplitude = -0.7044 alpha
    D(    1) --> V(    5) amplitude =  0.7044 beta

 Excited state   8: excitation energy (eV) =     524.7439
 Total energy for state   8:                   -57.18937745 au
    <S**2>     :  2.0000
    Trans. Mom.:  0.0000 X   0.0000 Y   0.0000 Z
    Strength   :     0.0000000000
    D(    1) --> V(    4) amplitude = -0.6812 alpha
    D(    1) --> V(    4) amplitude =  0.6812 beta

 Excited state   9: excitation energy (eV) =     524.9075
 Total energy for state   9:                   -57.18336325 au
    <S**2>     :  0.0000
    Trans. Mom.: -0.0000 X   0.0225 Y   0.0000 Z
    Strength   :     0.0065330779
    D(    1) --> V(    4) amplitude =  0.6991 alpha
    D(    1) --> V(    4) amplitude =  0.6991 beta

 Excited state  10: excitation energy (eV) =     525.0360
 Total energy for state  10:                   -57.17864236 au
    <S**2>     :  2.0000
    Trans. Mom.: -0.0000 X  -0.0000 Y   0.0000 Z
    Strength   :     0.0000000000
    D(    1) --> V(    3) amplitude = -0.2611 alpha
    D(    1) --> V(    6) amplitude = -0.6436 alpha
    D(    1) --> V(    3) amplitude =  0.2611 beta
    D(    1) --> V(    6) amplitude =  0.6436 beta

 Excited state  11: excitation energy (eV) =     525.2795
 Total energy for state  11:                   -57.16969511 au
    <S**2>     :  0.0000
    Trans. Mom.: -0.0461 X  -0.0000 Y  -0.0000 Z
    Strength   :     0.0274044291
    D(    1) --> V(    5) amplitude =  0.7064 alpha
    D(    1) --> V(    5) amplitude =  0.7064 beta

 Excited state  12: excitation energy (eV) =     525.5562
 Total energy for state  12:                   -57.15952436 au
    <S**2>     :  0.0000
    Trans. Mom.: -0.0000 X  -0.0000 Y   0.0364 Z
    Strength   :     0.0170152379
    D(    1) --> V(    6) amplitude =  0.6903 alpha
    D(    1) --> V(    6) amplitude =  0.6903 beta

 Excited state  13: excitation energy (eV) =     527.4497
 Total energy for state  13:                   -57.08994092 au
    <S**2>     :  2.0000
    Trans. Mom.:  0.0000 X  -0.0000 Y   0.0000 Z
    Strength   :     0.0000000000
    D(    1) --> V(    4) amplitude =  0.1514 alpha
    D(    1) --> V(    7) amplitude =  0.6784 alpha
    D(    1) --> V(    4) amplitude = -0.1514 beta
    D(    1) --> V(    7) amplitude = -0.6784 beta

 Excited state  14: excitation energy (eV) =     528.0003
 Total energy for state  14:                   -57.06970597 au
    <S**2>     :  0.0000
    Trans. Mom.: -0.0000 X  -0.0449 Y   0.0000 Z
    Strength   :     0.0261153460
    D(    1) --> V(    7) amplitude =  0.6988 alpha
    D(    1) --> V(    7) amplitude =  0.6988 beta

 Excited state  15: excitation energy (eV) =     528.5154
 Total energy for state  15:                   -57.05077587 au
    <S**2>     :  2.0000
    Trans. Mom.: -0.0000 X   0.0000 Y  -0.0000 Z
    Strength   :     0.0000000000
    D(    1) --> V(    8) amplitude = -0.7030 alpha
    D(    1) --> V(    8) amplitude =  0.7030 beta

 Excited state  16: excitation energy (eV) =     528.6072
 Total energy for state  16:                   -57.04740255 au
    <S**2>     :  0.0000
    Trans. Mom.:  0.0000 X  -0.0000 Y  -0.0123 Z
    Strength   :     0.0019635763
    D(    1) --> V(    8) amplitude =  0.7058 alpha
    D(    1) --> V(    8) amplitude =  0.7058 beta

 Excited state  17: excitation energy (eV) =     529.9393
 Total energy for state  17:                   -56.99845035 au
    <S**2>     :  2.0000
    Trans. Mom.: -0.0000 X   0.0000 Y  -0.0000 Z
    Strength   :     0.0000000000
    D(    1) --> V(    9) amplitude =  0.7067 alpha
    D(    1) --> V(    9) amplitude =  0.7067 beta

 Excited state  18: excitation energy (eV) =     529.9399
 Total energy for state  18:                   -56.99842833 au
    <S**2>     :  0.0000
    Trans. Mom.:  0.0000 X  -0.0000 Y  -0.0000 Z
    Strength   :     0.0000000000
    D(    1) --> V(    9) amplitude =  0.7067 alpha
    D(    1) --> V(    9) amplitude = -0.7067 beta

 Excited state  19: excitation energy (eV) =     531.2479
 Total energy for state  19:                   -56.95035882 au
    <S**2>     :  2.0000
    Trans. Mom.: -0.0000 X   0.0000 Y  -0.0000 Z
    Strength   :     0.0000000000
    D(    1) --> V(   10) amplitude = -0.7057 alpha
    D(    1) --> V(   10) amplitude =  0.7057 beta

 Excited state  20: excitation energy (eV) =     531.2725
 Total energy for state  20:                   -56.94945593 au
    <S**2>     :  0.0000
    Trans. Mom.: -0.0091 X   0.0000 Y  -0.0000 Z
    Strength   :     0.0010790476
    D(    1) --> V(   10) amplitude =  0.7064 alpha
    D(    1) --> V(   10) amplitude =  0.7064 beta

 Excited state  21: excitation energy (eV) =     532.2265
 Total energy for state  21:                   -56.91439735 au
    <S**2>     :  2.0000
    Trans. Mom.: -0.0000 X   0.0000 Y   0.0000 Z
    Strength   :     0.0000000000
    D(    1) --> V(   11) amplitude =  0.7038 alpha
    D(    1) --> V(   11) amplitude = -0.7038 beta

 Excited state  22: excitation energy (eV) =     532.9407
 Total energy for state  22:                   -56.88814876 au
    <S**2>     :  0.0000
    Trans. Mom.:  0.0000 X   0.0000 Y   0.0048 Z
    Strength   :     0.0003045206
    D(    1) --> V(   11) amplitude =  0.7062 alpha
    D(    1) --> V(   11) amplitude =  0.7062 beta

 Excited state  23: excitation energy (eV) =     536.0392
 Total energy for state  23:                   -56.77428250 au
    <S**2>     :  2.0000
    Trans. Mom.: -0.0000 X  -0.0000 Y  -0.0000 Z
    Strength   :     0.0000000000
    D(    1) --> V(   12) amplitude = -0.7064 alpha
    D(    1) --> V(   12) amplitude =  0.7064 beta

 Excited state  24: excitation energy (eV) =     536.0558
 Total energy for state  24:                   -56.77367124 au
    <S**2>     :  0.0000
    Trans. Mom.: -0.0000 X   0.0074 Y   0.0000 Z
    Strength   :     0.0007118805
    D(    1) --> V(   12) amplitude =  0.7068 alpha
    D(    1) --> V(   12) amplitude =  0.7068 beta

 Excited state  25: excitation energy (eV) =     537.3437
 Total energy for state  25:                   -56.72634409 au
    <S**2>     :  2.0000
    Trans. Mom.:  0.0000 X  -0.0000 Y  -0.0000 Z
    Strength   :     0.0000000000
    D(    1) --> V(   13) amplitude =  0.7058 alpha
    D(    1) --> V(   13) amplitude = -0.7058 beta

 Excited state  26: excitation energy (eV) =     537.4088
 Total energy for state  26:                   -56.72394977 au
    <S**2>     :  0.0000
    Trans. Mom.:  0.0000 X  -0.0000 Y  -0.0139 Z
    Strength   :     0.0025502391
    D(    1) --> V(   13) amplitude =  0.7066 alpha
    D(    1) --> V(   13) amplitude =  0.7066 beta

 Excited state  27: excitation energy (eV) =     538.5352
 Total energy for state  27:                   -56.68255527 au
    <S**2>     :  2.0000
    Trans. Mom.:  0.0000 X  -0.0000 Y   0.0000 Z
    Strength   :     0.0000000000
    D(    1) --> V(   14) amplitude =  0.6996 alpha
    D(    1) --> V(   14) amplitude = -0.6996 beta

 Excited state  28: excitation energy (eV) =     538.5366
 Total energy for state  28:                   -56.68250403 au
    <S**2>     :  0.0000
    Trans. Mom.:  0.0000 X  -0.0004 Y   0.0000 Z
    Strength   :     0.0000024096
    D(    1) --> V(   14) amplitude =  0.6994 alpha
    D(    1) --> V(   14) amplitude =  0.6994 beta

 Excited state  29: excitation energy (eV) =     540.0227
 Total energy for state  29:                   -56.62789287 au
    <S**2>     :  2.0000
    Trans. Mom.:  0.0000 X  -0.0000 Y   0.0000 Z
    Strength   :     0.0000000000
    D(    1) --> V(   15) amplitude =  0.6952 alpha
    D(    1) --> V(   15) amplitude = -0.6952 beta

 Excited state  30: excitation energy (eV) =     540.2978
 Total energy for state  30:                   -56.61778226 au
    <S**2>     :  0.0000
    Trans. Mom.:  0.0000 X  -0.0293 Y   0.0000 Z
    Strength   :     0.0113359524
    D(    1) --> V(   15) amplitude =  0.6985 alpha
    D(    1) --> V(   15) amplitude =  0.6985 beta

 Excited state  31: excitation energy (eV) =     540.4346
 Total energy for state  31:                   -56.61275485 au
    <S**2>     :  2.0000
    Trans. Mom.:  0.0000 X  -0.0000 Y   0.0000 Z
    Strength   :     0.0000000000
    D(    1) --> V(   16) amplitude = -0.7031 alpha
    D(    1) --> V(   16) amplitude =  0.7031 beta

 Excited state  32: excitation energy (eV) =     540.7761
 Total energy for state  32:                   -56.60020392 au
    <S**2>     :  0.0000
    Trans. Mom.:  0.0000 X   0.0000 Y   0.0209 Z
    Strength   :     0.0057793932
    D(    1) --> V(   16) amplitude =  0.7058 alpha
    D(    1) --> V(   16) amplitude =  0.7058 beta

 Excited state  33: excitation energy (eV) =     545.2735
 Total energy for state  33:                   -56.43492788 au
    <S**2>     :  2.0000
    Trans. Mom.: -0.0000 X   0.0000 Y  -0.0000 Z
    Strength   :     0.0000000000
    D(    1) --> V(   17) amplitude = -0.7066 alpha
    D(    1) --> V(   17) amplitude =  0.7066 beta

 Excited state  34: excitation energy (eV) =     545.2773
 Total energy for state  34:                   -56.43478739 au
    <S**2>     :  0.0000
    Trans. Mom.:  0.0000 X   0.0000 Y   0.0000 Z
    Strength   :     0.0000000000
    D(    1) --> V(   17) amplitude =  0.7066 alpha
    D(    1) --> V(   17) amplitude =  0.7066 beta

 Excited state  35: excitation energy (eV) =     545.3261
 Total energy for state  35:                   -56.43299559 au
    <S**2>     :  2.0000
    Trans. Mom.: -0.0000 X  -0.0000 Y   0.0000 Z
    Strength   :     0.0000000000
    D(    1) --> V(   18) amplitude = -0.7064 alpha
    D(    1) --> V(   18) amplitude =  0.7064 beta

 Excited state  36: excitation energy (eV) =     545.3300
 Total energy for state  36:                   -56.43285100 au
    <S**2>     :  0.0000
    Trans. Mom.: -0.0010 X   0.0000 Y  -0.0000 Z
    Strength   :     0.0000137251
    D(    1) --> V(   18) amplitude =  0.7065 alpha
    D(    1) --> V(   18) amplitude =  0.7065 beta

 Excited state  37: excitation energy (eV) =     546.0806
 Total energy for state  37:                   -56.40526753 au
    <S**2>     :  2.0000
    Trans. Mom.:  0.0000 X  -0.0000 Y  -0.0000 Z
    Strength   :     0.0000000000
    D(    1) --> V(   19) amplitude =  0.4263 alpha
    D(    1) --> V(   20) amplitude =  0.5570 alpha
    D(    1) --> V(   19) amplitude = -0.4263 beta
    D(    1) --> V(   20) amplitude = -0.5570 beta

 Excited state  38: excitation energy (eV) =     546.5894
 Total energy for state  38:                   -56.38656953 au
    <S**2>     :  0.0000
    Trans. Mom.:  0.0000 X  -0.0000 Y  -0.0202 Z
    Strength   :     0.0054682381
    D(    1) --> V(   19) amplitude =  0.7063 alpha
    D(    1) --> V(   19) amplitude =  0.7063 beta

 Excited state  39: excitation energy (eV) =     546.6516
 Total energy for state  39:                   -56.38428435 au
    <S**2>     :  2.0000
    Trans. Mom.: -0.0000 X   0.0000 Y   0.0000 Z
    Strength   :     0.0000000000
    D(    1) --> V(   19) amplitude =  0.5620 alpha
    D(    1) --> V(   20) amplitude = -0.4278 alpha
    D(    1) --> V(   19) amplitude = -0.5620 beta
    D(    1) --> V(   20) amplitude =  0.4278 beta

 Excited state  40: excitation energy (eV) =     546.9398
 Total energy for state  40:                   -56.37369227 au
    <S**2>     : -0.0000
    Trans. Mom.: -0.0000 X   0.0000 Y  -0.0447 Z
    Strength   :     0.0267374543
    D(    1) --> V(   20) amplitude =  0.7062 alpha
    D(    1) --> V(   20) amplitude =  0.7062 beta

 Excited state  41: excitation energy (eV) =     549.1920
 Total energy for state  41:                   -56.29092561 au
    <S**2>     :  2.0000
    Trans. Mom.:  0.0000 X   0.0000 Y   0.0000 Z
    Strength   :     0.0000000000
    D(    1) --> V(   21) amplitude = -0.7023 alpha
    D(    1) --> V(   21) amplitude =  0.7023 beta

 Excited state  42: excitation energy (eV) =     549.8799
 Total energy for state  42:                   -56.26564420 au
    <S**2>     :  0.0000
    Trans. Mom.:  0.0000 X   0.0466 Y  -0.0000 Z
    Strength   :     0.0292944691
    D(    1) --> V(   21) amplitude =  0.7063 alpha
    D(    1) --> V(   21) amplitude =  0.7063 beta

 Excited state  43: excitation energy (eV) =     550.1099
 Total energy for state  43:                   -56.25719321 au
    <S**2>     :  2.0000
    Trans. Mom.: -0.0000 X  -0.0000 Y   0.0000 Z
    Strength   :     0.0000000000
    D(    1) --> V(   22) amplitude = -0.6989 alpha
    D(    1) --> V(   22) amplitude =  0.6989 beta

 Excited state  44: excitation energy (eV) =     551.5478
 Total energy for state  44:                   -56.20434999 au
    <S**2>     :  0.0000
    Trans. Mom.: -0.0658 X   0.0000 Y   0.0000 Z
    Strength   :     0.0584952929
    D(    1) --> V(   22) amplitude =  0.7049 alpha
    D(    1) --> V(   22) amplitude =  0.7049 beta

 Excited state  45: excitation energy (eV) =     554.6424
 Total energy for state  45:                   -56.09062576 au
    <S**2>     :  2.0000
    Trans. Mom.: -0.0000 X   0.0000 Y   0.0000 Z
    Strength   :     0.0000000000
    D(    1) --> V(   23) amplitude = -0.7023 alpha
    D(    1) --> V(   23) amplitude =  0.7023 beta

 Excited state  46: excitation energy (eV) =     554.6673
 Total energy for state  46:                   -56.08971311 au
    <S**2>     :  0.0000
    Trans. Mom.: -0.0101 X  -0.0000 Y   0.0000 Z
    Strength   :     0.0013940295
    D(    1) --> V(   23) amplitude =  0.7055 alpha
    D(    1) --> V(   23) amplitude =  0.7055 beta

 Excited state  47: excitation energy (eV) =     557.1550
 Total energy for state  47:                   -55.99829195 au
    <S**2>     :  2.0000
    Trans. Mom.: -0.0000 X   0.0000 Y   0.0000 Z
    Strength   :     0.0000000000
    D(    1) --> V(   24) amplitude =  0.7038 alpha
    D(    1) --> V(   24) amplitude = -0.7038 beta

 Excited state  48: excitation energy (eV) =     557.2833
 Total energy for state  48:                   -55.99357620 au
    <S**2>     :  0.0000
    Trans. Mom.: -0.0000 X   0.0000 Y  -0.0058 Z
    Strength   :     0.0004589705
    D(    1) --> V(   24) amplitude =  0.7066 alpha
    D(    1) --> V(   24) amplitude =  0.7066 beta

 Excited state  49: excitation energy (eV) =     558.5589
 Total energy for state  49:                   -55.94670007 au
    <S**2>     :  2.0000
    Trans. Mom.: -0.0000 X  -0.0000 Y  -0.0000 Z

 Excited state 100: excitation energy (eV) =     606.6888
 Excited state 101: excitation energy (eV) =     609.1546
 Excited state 102: excitation energy (eV) =     609.7234
 Excited state 103: excitation energy (eV) =     611.1656
 Excited state 104: excitation energy (eV) =     611.2002
 Excited state 105: excitation energy (eV) =     611.9072
 Excited state 106: excitation energy (eV) =     612.0315
 Excited state 107: excitation energy (eV) =     612.1726
 Excited state 108: excitation energy (eV) =     612.1731
 Excited state 109: excitation energy (eV) =     613.0791
 Excited state 110: excitation energy (eV) =     613.3534
 Excited state 111: excitation energy (eV) =     619.8733
 Excited state 112: excitation energy (eV) =     620.2340
 Excited state 113: excitation energy (eV) =     621.3458
 Excited state 114: excitation energy (eV) =     621.3478
 Excited state 115: excitation energy (eV) =     624.3477
 Excited state 116: excitation energy (eV) =     624.3813
 Excited state 117: excitation energy (eV) =     624.4182
 Excited state 118: excitation energy (eV) =     625.7851
 Excited state 119: excitation energy (eV) =     626.3724
 Excited state 120: excitation energy (eV) =     626.6260
 Excited state 121: excitation energy (eV) =     634.3576
 Excited state 122: excitation energy (eV) =     634.3680
 Excited state 123: excitation energy (eV) =     637.3780
 Excited state 124: excitation energy (eV) =     637.7698
 Excited state 125: excitation energy (eV) =     637.9803
 Excited state 126: excitation energy (eV) =     637.9849
 Excited state 127: excitation energy (eV) =     638.3941
 Excited state 128: excitation energy (eV) =     638.5541
 Excited state 129: excitation energy (eV) =     639.2948
 Excited state 130: excitation energy (eV) =     639.3053
 Excited state 131: excitation energy (eV) =     640.9531
 Excited state 132: excitation energy (eV) =     640.9559
 Excited state 133: excitation energy (eV) =     641.7569
 Excited state 134: excitation energy (eV) =     641.7701
 Excited state 135: excitation energy (eV) =     642.5694
 Excited state 136: excitation energy (eV) =     642.8924
 Excited state 137: excitation energy (eV) =     645.7740
 Excited state 138: excitation energy (eV) =     645.8369
 Excited state 139: excitation energy (eV) =     646.1845
  Excited state 353:  1040.6448 eV
  Excited state 354:  1040.7162 eV
  Excited state 355:  1041.0656 eV
  Excited state 356:  1041.1902 eV
  Excited state 357:  1041.2199 eV
  Excited state 358:  1041.2231 eV
  Excited state 359:  1041.3639 eV
  Excited state 360:  1041.5178 eV
  Excited state 361:  1049.0922 eV
  Excited state 362:  1049.1609 eV
  Excited state 363:  1049.9492 eV
  Excited state 364:  1050.0962 eV
  Excited state 365:  1071.9644 eV
  Excited state 366:  1074.1424 eV
  Excited state 367:  1080.8229 eV
  Excited state 368:  1082.5362 eV
  Excited state 369:  1102.1634 eV
  Excited state 370:  1104.9106 eV
  Excited state 371:  1105.5793 eV
  Excited state 372:  1108.1136 eV
  Excited state 373:  1114.4743 eV
  Excited state 374:  1116.1339 eV
  Excited state 375:  1139.8203 eV
  Excited state 376:  1140.5364 eV
  Excited state 377:  1143.0395 eV
  Excited state 378:  1143.1560 eV
  Excited state 379:  1143.4132 eV
  Excited state 380:  1144.1425 eV
  Excited state 381:  1145.7125 eV
  Excited state 382:  1146.9972 eV
  Excited state 383:  1171.6893 eV
  Excited state 384:  1175.0256 eV
  Excited state 385:  1186.0616 eV
  Excited state 386:  1188.3650 eV
  Excited state 387:  1190.1601 eV
  Excited state 388:  1195.7696 eV
  Excited state 389:  1219.7682 eV
  Excited state 390:  1221.0320 eV
  Excited state 391:  2221.0294 eV
  Excited state 392:  2266.7352 eV

                    Orbital Energies (a.u.)
 --------------------------------------------------------------

 Alpha MOs
 -- Occupied --
-19.1327  -1.0187  -0.5394  -0.3970  -0.3223

 Beta MOs
 -- Occupied --
-19.1327  -1.0187  -0.5394  -0.3970  -0.3223

          Ground-State Mulliken Net Atomic Charges

     Atom                 Charge (a.u.)    Spin (a.u.)
  --------------------------------------------------------
      1 O                    -0.562207       0.000000
      2 H                     0.281103      -0.000000
      3 H                     0.281103      -0.000000
  --------------------------------------------------------
  Sum of atomic charges =     0.000000

                    Cartesian Multipole Moments
 -----------------------------------------------------------------
    Charge (ESU x 10^10)
                 0.0000
    Dipole Moment (Debye)
         X      -0.0000      Y       0.0000      Z      -1.8857
       Tot       1.8857
    Quadrupole Moments (Debye-Ang)
        XX      -7.6846     XY       0.0000     YY      -4.4230
        XZ       0.0000     YZ       0.0000     ZZ      -6.4384

 Total job time:  277.09s(wall), 6926.56s(cpu)
        *  Thank you very much for using Q-Chem.  Have a nice day.  *
